/*--------------------------------*- C++ -*----------------------------------*\
| =========                 |                                                 |
| \\      /  F ield         | OpenFOAM: The Open Source CFD Toolbox           |
|  \\    /   O peration     | Version:  5.x                                   |
|   \\  /    A nd           | Web:      www.OpenFOAM.org                      |
|    \\/     M anipulation  |                                                 |
\*---------------------------------------------------------------------------*/
FoamFile
{
    version     2.0;
    format      ascii;
    class       surfaceScalarField;
    location    "0";
    object      phi;
}
// * * * * * * * * * * * * * * * * * * * * * * * * * * * * * * * * * * * * * //

dimensions      [0 3 -1 0 0 0 0];

internalField   nonuniform List<scalar> 
256062
(
-3.73147e-13
3.79418e-05
-5.00373e-12
4.1736e-05
-1.0078e-11
4.59096e-05
-1.5621e-11
5.05006e-05
-2.16639e-11
5.55506e-05
-2.82351e-11
6.11057e-05
-3.53605e-11
6.72163e-05
-4.30538e-11
7.39379e-05
-5.13289e-11
8.13317e-05
-6.01824e-11
8.94648e-05
-6.96059e-11
9.84113e-05
-7.95758e-11
0.000108252
-9.00477e-11
0.000119078
-1.00963e-10
0.000130985
-1.12238e-10
0.000144084
-1.23762e-10
0.000158492
-1.35387e-10
0.000174342
-1.46933e-10
0.000191776
-1.58159e-10
0.000210953
-1.6881e-10
0.000232049
-1.7853e-10
0.000255254
-1.86998e-10
0.000280779
-1.9373e-10
0.000308857
-1.98399e-10
0.000339743
-2.00367e-10
0.000373717
-1.99392e-10
0.000411089
-1.94615e-10
0.000452197
-1.85949e-10
0.000497417
-1.72184e-10
0.000547159
-1.53413e-10
0.000601875
-1.28061e-10
0.000662062
-9.64367e-11
0.000728268
-5.84488e-11
0.000801095
-1.47687e-11
0.000881205
3.46121e-11
0.000969325
9.00006e-11
0.00106626
1.53249e-10
0.00117288
2.25885e-10
0.00129017
2.99652e-10
0.00129017
3.65943e-10
0.00117288
4.25454e-10
0.00106626
4.78411e-10
0.000969325
5.2507e-10
0.000881205
5.65685e-10
0.000801095
6.0056e-10
0.000728268
6.29327e-10
0.000662062
6.52238e-10
0.000601875
6.6824e-10
0.000547159
6.77881e-10
0.000497417
6.80037e-10
0.000452197
6.75967e-10
0.000411088
6.64832e-10
0.000373717
6.48166e-10
0.000339743
6.25692e-10
0.000308857
5.98871e-10
0.000280779
5.67958e-10
0.000255254
5.3421e-10
0.000232049
4.98187e-10
0.000210953
4.60892e-10
0.000191776
4.2294e-10
0.000174342
3.85064e-10
0.000158492
3.47769e-10
0.000144084
3.11534e-10
0.000130985
2.7669e-10
0.000119078
2.43502e-10
0.000108252
2.12136e-10
9.84113e-05
1.82695e-10
8.94649e-05
1.5522e-10
8.13317e-05
1.29702e-10
7.39379e-05
1.06105e-10
6.72163e-05
8.43541e-11
6.11057e-05
6.43649e-11
5.55506e-05
4.60411e-11
5.05006e-05
2.92768e-11
4.59096e-05
1.39671e-11
4.1736e-05
3.79418e-05
-9.33001e-13
3.79418e-05
-6.27939e-12
4.1736e-05
-1.20979e-11
4.59096e-05
-1.84137e-11
5.05006e-05
-2.52413e-11
5.55506e-05
-3.25968e-11
6.11057e-05
-4.04839e-11
6.72163e-05
-4.89057e-11
7.39379e-05
-5.78479e-11
8.13317e-05
-6.73036e-11
8.94648e-05
-7.72449e-11
9.84113e-05
-8.76395e-11
0.000108252
-9.84417e-11
0.000119078
-1.09591e-10
0.000130985
-1.21001e-10
0.000144084
-1.32564e-10
0.000158492
-1.44126e-10
0.000174342
-1.55508e-10
0.000191776
-1.66462e-10
0.000210953
-1.76743e-10
0.000232049
-1.85983e-10
0.000255254
-1.93908e-10
0.000280779
-2.00005e-10
0.000308857
-2.04046e-10
0.000339743
-2.05328e-10
0.000373717
-2.03763e-10
0.000411088
-1.98347e-10
0.000452197
-1.89171e-10
0.000497417
-1.74779e-10
0.000547159
-1.55431e-10
0.000601875
-1.29507e-10
0.000662062
-9.70993e-11
0.000728268
-5.87036e-11
0.000801095
-1.51633e-11
0.000881205
3.40108e-11
0.000969325
8.93856e-11
0.00106626
1.5281e-10
0.00117288
2.25726e-10
0.00129017
2.99747e-10
0.00129017
3.66203e-10
0.00117288
4.25888e-10
0.00106626
4.79058e-10
0.000969325
5.2604e-10
0.000881205
5.67103e-10
0.000801095
6.02746e-10
0.000728268
6.32528e-10
0.000662062
6.56644e-10
0.000601875
6.74013e-10
0.000547159
6.85293e-10
0.000497417
6.89158e-10
0.000452197
6.87005e-10
0.000411088
6.77743e-10
0.000373717
6.62987e-10
0.000339743
6.42231e-10
0.000308857
6.16971e-10
0.000280779
5.87299e-10
0.000255254
5.5449e-10
0.000232049
5.19016e-10
0.000210953
4.81896e-10
0.000191776
4.43725e-10
0.000174342
4.05262e-10
0.000158492
3.67032e-10
0.000144084
3.29547e-10
0.000130985
2.93181e-10
0.000119078
2.58239e-10
0.000108252
2.2493e-10
9.84113e-05
1.93398e-10
8.94649e-05
1.63722e-10
8.13317e-05
1.35929e-10
7.39379e-05
1.10016e-10
6.72163e-05
8.59384e-11
6.11057e-05
6.36385e-11
5.55506e-05
4.30396e-11
5.05006e-05
2.40509e-11
4.59096e-05
6.58524e-12
4.1736e-05
3.79418e-05
-1.31142e-12
3.79418e-05
-7.10384e-12
4.1736e-05
-1.33946e-11
4.59096e-05
-2.01933e-11
5.05006e-05
-2.7515e-11
5.55506e-05
-3.53638e-11
6.11057e-05
-4.37391e-11
6.72163e-05
-5.2629e-11
7.39379e-05
-6.20264e-11
8.13317e-05
-7.19079e-11
8.94648e-05
-8.22464e-11
9.84113e-05
-9.30095e-11
0.000108252
-1.0415e-10
0.000119078
-1.15601e-10
0.000130985
-1.27267e-10
0.000144084
-1.39031e-10
0.000158492
-1.50723e-10
0.000174342
-1.62163e-10
0.000191776
-1.73074e-10
0.000210953
-1.8323e-10
0.000232049
-1.92228e-10
0.000255254
-1.99849e-10
0.000280779
-2.05525e-10
0.000308857
-2.09138e-10
0.000339743
-2.0989e-10
0.000373717
-2.07862e-10
0.000411088
-2.01899e-10
0.000452197
-1.92268e-10
0.000497417
-1.77276e-10
0.000547159
-1.57197e-10
0.000601875
-1.3071e-10
0.000662062
-9.79788e-11
0.000728268
-5.93837e-11
0.000801095
-1.57673e-11
0.000881205
3.3425e-11
0.000969325
8.88817e-11
0.00106626
1.52489e-10
0.00117288
2.2562e-10
0.00129017
2.99873e-10
0.00129017
3.66554e-10
0.00117288
4.26446e-10
0.00106626
4.79855e-10
0.000969325
5.27203e-10
0.000881205
5.68684e-10
0.000801095
6.04961e-10
0.000728268
6.35382e-10
0.000662062
6.60461e-10
0.000601875
6.78791e-10
0.000547159
6.91331e-10
0.000497417
6.96447e-10
0.000452197
6.95719e-10
0.000411088
6.8779e-10
0.000373717
6.74367e-10
0.000339743
6.54742e-10
0.000308857
6.30451e-10
0.000280779
6.01465e-10
0.000255254
5.69084e-10
0.000232049
5.33731e-10
0.000210953
4.96464e-10
0.000191776
4.57884e-10
0.000174342
4.18796e-10
0.000158492
3.79756e-10
0.000144084
3.4133e-10
0.000130985
3.03926e-10
0.000119078
2.67891e-10
0.000108252
2.33466e-10
9.84113e-05
2.00826e-10
8.94648e-05
1.70071e-10
8.13316e-05
1.41248e-10
7.39379e-05
1.14359e-10
6.72162e-05
8.93746e-11
6.11057e-05
6.62345e-11
5.55506e-05
4.48655e-11
5.05006e-05
2.51777e-11
4.59096e-05
7.07922e-12
4.1736e-05
3.79418e-05
-1.43848e-12
3.79418e-05
-7.50427e-12
4.1736e-05
-1.40842e-11
4.59096e-05
-2.11926e-11
5.05006e-05
-2.88438e-11
5.55506e-05
-3.70428e-11
6.11057e-05
-4.57815e-11
6.72162e-05
-5.5047e-11
7.39379e-05
-6.48261e-11
8.13317e-05
-7.50905e-11
8.94648e-05
-8.58062e-11
9.84113e-05
-9.6937e-11
0.000108252
-1.08423e-10
0.000119078
-1.20193e-10
0.000130985
-1.32143e-10
0.000144084
-1.44147e-10
0.000158492
-1.56027e-10
0.000174342
-1.67594e-10
0.000191776
-1.78567e-10
0.000210953
-1.88712e-10
0.000232049
-1.97625e-10
0.000255254
-2.05083e-10
0.000280779
-2.1053e-10
0.000308857
-2.13841e-10
0.000339742
-2.1425e-10
0.000373717
-2.11812e-10
0.000411088
-2.05449e-10
0.000452197
-1.95348e-10
0.000497417
-1.79931e-10
0.000547159
-1.59244e-10
0.000601875
-1.32225e-10
0.000662062
-9.91212e-11
0.000728268
-6.03143e-11
0.000801095
-1.65538e-11
0.000881205
3.27351e-11
0.000969325
8.8322e-11
0.00106626
1.52143e-10
0.00117288
2.25533e-10
0.00129017
3.00071e-10
0.00129017
3.67031e-10
0.00117288
4.27192e-10
0.00106626
4.80895e-10
0.000969325
5.28594e-10
0.000881205
5.70541e-10
0.000801095
6.07309e-10
0.000728268
6.38419e-10
0.000662062
6.6421e-10
0.000601875
6.83434e-10
0.000547159
6.96873e-10
0.000497417
7.0297e-10
0.000452197
7.03188e-10
0.000411088
6.96166e-10
0.000373717
6.83543e-10
0.000339743
6.64575e-10
0.000308857
6.40773e-10
0.000280779
6.12079e-10
0.000255254
5.79798e-10
0.000232049
5.44352e-10
0.000210953
5.06817e-10
0.000191776
4.67815e-10
0.000174342
4.28178e-10
0.000158492
3.88492e-10
0.000144084
3.49349e-10
0.000130985
3.11186e-10
0.000119078
2.74369e-10
0.000108252
2.39167e-10
9.84113e-05
2.0576e-10
8.94648e-05
1.74268e-10
8.13316e-05
1.44741e-10
7.39379e-05
1.17191e-10
6.72162e-05
9.15867e-11
6.11057e-05
6.7876e-11
5.55506e-05
4.59821e-11
5.05006e-05
2.58124e-11
4.59096e-05
7.27206e-12
4.1736e-05
3.79418e-05
-1.56472e-12
3.79418e-05
-7.78692e-12
4.1736e-05
-1.45354e-11
4.59096e-05
-2.18342e-11
5.05006e-05
-2.96926e-11
5.55506e-05
-3.81111e-11
6.11057e-05
-4.70829e-11
6.72162e-05
-5.6602e-11
7.39379e-05
-6.66453e-11
8.13316e-05
-7.71913e-11
8.94648e-05
-8.81995e-11
9.84113e-05
-9.9628e-11
0.000108252
-1.11414e-10
0.000119078
-1.23483e-10
0.000130985
-1.35721e-10
0.000144084
-1.47998e-10
0.000158492
-1.60121e-10
0.000174342
-1.71898e-10
0.000191776
-1.83032e-10
0.000210953
-1.93289e-10
0.000232049
-2.02247e-10
0.000255254
-2.09688e-10
0.000280779
-2.1504e-10
0.000308857
-2.18192e-10
0.000339742
-2.18368e-10
0.000373717
-2.15636e-10
0.000411088
-2.08928e-10
0.000452197
-1.98413e-10
0.000497417
-1.82586e-10
0.000547159
-1.61409e-10
0.000601874
-1.33939e-10
0.000662062
-1.00475e-10
0.000728268
-6.14053e-11
0.000801095
-1.74632e-11
0.000881204
3.19821e-11
0.000969325
8.7734e-11
0.00106626
1.51786e-10
0.00117288
2.25463e-10
0.00129017
3.00318e-10
0.00129017
3.67592e-10
0.00117288
4.28063e-10
0.00106626
4.82093e-10
0.000969325
5.30173e-10
0.000881204
5.72563e-10
0.000801095
6.09831e-10
0.000728268
6.41519e-10
0.000662062
6.67942e-10
0.000601874
6.87843e-10
0.000547159
7.01971e-10
0.000497417
7.08742e-10
0.000452197
7.09584e-10
0.000411088
7.03091e-10
0.000373717
6.90895e-10
0.000339742
6.72207e-10
0.000308857
6.48555e-10
0.000280779
6.1986e-10
0.000255254
5.87457e-10
0.000232049
5.51767e-10
0.000210953
5.13903e-10
0.000191776
4.74493e-10
0.000174342
4.34402e-10
0.000158492
3.94227e-10
0.000144084
3.54582e-10
0.000130985
3.1591e-10
0.000119078
2.78594e-10
0.000108252
2.42899e-10
9.84113e-05
2.09021e-10
8.94648e-05
1.77075e-10
8.13316e-05
1.47121e-10
7.39379e-05
1.19169e-10
6.72162e-05
9.31872e-11
6.11057e-05
6.91223e-11
5.55506e-05
4.68982e-11
5.05005e-05
2.64202e-11
4.59096e-05
7.59917e-12
4.1736e-05
3.79418e-05
-1.59444e-12
3.79418e-05
-7.96953e-12
4.1736e-05
-1.48859e-11
4.59096e-05
-2.23643e-11
5.05005e-05
-3.04133e-11
5.55506e-05
-3.90359e-11
6.11057e-05
-4.8224e-11
6.72162e-05
-5.79693e-11
7.39379e-05
-6.82496e-11
8.13316e-05
-7.90375e-11
8.94648e-05
-9.0296e-11
9.84113e-05
-1.01979e-10
0.000108252
-1.14021e-10
0.000119078
-1.26343e-10
0.000130985
-1.38829e-10
0.000144084
-1.51341e-10
0.000158492
-1.63683e-10
0.000174342
-1.75656e-10
0.000191776
-1.86954e-10
0.000210953
-1.97337e-10
0.000232049
-2.06372e-10
0.000255254
-2.13841e-10
0.000280779
-2.19156e-10
0.000308857
-2.22213e-10
0.000339742
-2.22224e-10
0.000373717
-2.19273e-10
0.000411088
-2.12276e-10
0.000452197
-2.01438e-10
0.000497417
-1.85214e-10
0.000547159
-1.63626e-10
0.000601874
-1.35743e-10
0.000662062
-1.01922e-10
0.000728268
-6.25797e-11
0.000801095
-1.84237e-11
0.000881204
3.12007e-11
0.000969325
8.7138e-11
0.00106626
1.51432e-10
0.00117288
2.25411e-10
0.00129017
3.00604e-10
0.00129017
3.68212e-10
0.00117288
4.29021e-10
0.00106626
4.83399e-10
0.000969325
5.31854e-10
0.000881204
5.74682e-10
0.000801095
6.12399e-10
0.000728268
6.44612e-10
0.000662062
6.71553e-10
0.000601874
6.92002e-10
0.000547159
7.06649e-10
0.000497417
7.13891e-10
0.000452197
7.1515e-10
0.000411088
7.08976e-10
0.000373717
6.97014e-10
0.000339742
6.78444e-10
0.000308857
6.54809e-10
0.000280779
6.26019e-10
0.000255254
5.93425e-10
0.000232049
5.57457e-10
0.000210953
5.19243e-10
0.000191776
4.79428e-10
0.000174342
4.38893e-10
0.000158492
3.98257e-10
0.000144084
3.58144e-10
0.000130985
3.19017e-10
0.000119078
2.81265e-10
0.000108252
2.45164e-10
9.84113e-05
2.10915e-10
8.94648e-05
1.78634e-10
8.13316e-05
1.48379e-10
7.39379e-05
1.20162e-10
6.72162e-05
9.39491e-11
6.11057e-05
6.9679e-11
5.55506e-05
4.7278e-11
5.05005e-05
2.66494e-11
4.59096e-05
7.69197e-12
4.1736e-05
3.79418e-05
-1.69283e-12
3.79418e-05
-8.15914e-12
4.1736e-05
-1.51721e-11
4.59096e-05
-2.27578e-11
5.05005e-05
-3.09212e-11
5.55506e-05
-3.96731e-11
6.11057e-05
-4.90025e-11
6.72162e-05
-5.89017e-11
7.39378e-05
-6.9347e-11
8.13316e-05
-8.03136e-11
8.94648e-05
-9.17624e-11
9.84113e-05
-1.03646e-10
0.000108252
-1.15901e-10
0.000119078
-1.28445e-10
0.000130985
-1.41155e-10
0.000144084
-1.53895e-10
0.000158492
-1.66459e-10
0.000174342
-1.78643e-10
0.000191776
-1.90132e-10
0.000210953
-2.00685e-10
0.000232049
-2.09848e-10
0.000255254
-2.17411e-10
0.000280779
-2.22757e-10
0.000308857
-2.25801e-10
0.000339742
-2.25724e-10
0.000373717
-2.22633e-10
0.000411088
-2.15423e-10
0.000452197
-2.04313e-10
0.000497417
-1.8777e-10
0.000547159
-1.6581e-10
0.000601874
-1.37568e-10
0.000662062
-1.03416e-10
0.000728268
-6.37879e-11
0.000801095
-1.94146e-11
0.000881204
3.04128e-11
0.000969325
8.65489e-11
0.00106626
1.51089e-10
0.00117288
2.25374e-10
0.00129017
3.00911e-10
0.00129017
3.68866e-10
0.00117288
4.3003e-10
0.00106626
4.84775e-10
0.000969325
5.33619e-10
0.000881204
5.76857e-10
0.000801095
6.15021e-10
0.000728268
6.47664e-10
0.000662062
6.75062e-10
0.000601874
6.95924e-10
0.000547159
7.10969e-10
0.000497417
7.18548e-10
0.000452197
7.20089e-10
0.000411088
7.14112e-10
0.000373717
7.0228e-10
0.000339742
6.83752e-10
0.000308857
6.60101e-10
0.000280779
6.31222e-10
0.000255254
5.985e-10
0.000232049
5.62358e-10
0.000210953
5.23947e-10
0.000191776
4.83908e-10
0.000174342
4.43138e-10
0.000158492
4.02249e-10
0.000144084
3.61872e-10
0.000130985
3.22466e-10
0.000119078
2.84423e-10
0.000108252
2.4802e-10
9.84113e-05
2.13458e-10
8.94648e-05
1.80859e-10
8.13316e-05
1.50283e-10
7.39378e-05
1.21745e-10
6.72162e-05
9.52209e-11
6.11057e-05
7.06461e-11
5.55506e-05
4.79503e-11
5.05005e-05
2.70407e-11
4.59096e-05
7.81614e-12
4.1736e-05
3.79418e-05
-1.70074e-12
3.79418e-05
-8.28361e-12
4.1736e-05
-1.5421e-11
4.59096e-05
-2.31362e-11
5.05005e-05
-3.14436e-11
5.55506e-05
-4.03467e-11
6.11057e-05
-4.98358e-11
6.72162e-05
-5.98974e-11
7.39378e-05
-7.0516e-11
8.13316e-05
-8.16589e-11
8.94648e-05
-9.32874e-11
9.84113e-05
-1.05355e-10
0.000108252
-1.17794e-10
0.000119078
-1.30522e-10
0.000130985
-1.43415e-10
0.000144084
-1.56334e-10
0.000158492
-1.69069e-10
0.000174342
-1.81415e-10
0.000191776
-1.9305e-10
0.000210953
-2.03729e-10
0.000232049
-2.12992e-10
0.000255253
-2.20625e-10
0.000280779
-2.26002e-10
0.000308857
-2.29038e-10
0.000339742
-2.28898e-10
0.000373717
-2.25705e-10
0.000411088
-2.18327e-10
0.000452197
-2.07021e-10
0.000497417
-1.90198e-10
0.000547159
-1.67942e-10
0.000601874
-1.39363e-10
0.000662062
-1.04891e-10
0.000728268
-6.49929e-11
0.000801095
-2.03893e-11
0.000881204
2.96361e-11
0.000969325
8.59744e-11
0.00106626
1.5076e-10
0.00117288
2.25352e-10
0.00129017
3.01237e-10
0.00129017
3.69546e-10
0.00117288
4.31072e-10
0.00106626
4.86188e-10
0.000969325
5.3541e-10
0.000881204
5.79049e-10
0.000801095
6.176e-10
0.000728268
6.5066e-10
0.000662062
6.78437e-10
0.000601874
6.9967e-10
0.000547159
7.15037e-10
0.000497417
7.22874e-10
0.000452197
7.24621e-10
0.000411088
7.18772e-10
0.000373717
7.07003e-10
0.000339742
6.88456e-10
0.000308857
6.64714e-10
0.000280779
6.35669e-10
0.000255254
6.02712e-10
0.000232049
5.66273e-10
0.000210953
5.27513e-10
0.000191776
4.87092e-10
0.000174342
4.45918e-10
0.000158492
4.04622e-10
0.000144084
3.63853e-10
0.000130985
3.24083e-10
0.000119078
2.85712e-10
0.000108252
2.49028e-10
9.84113e-05
2.14229e-10
8.94648e-05
1.81438e-10
8.13316e-05
1.50716e-10
7.39378e-05
1.22066e-10
6.72162e-05
9.54646e-11
6.11057e-05
7.08414e-11
5.55506e-05
4.81125e-11
5.05005e-05
2.71826e-11
4.59096e-05
7.95644e-12
4.1736e-05
3.79418e-05
-1.77063e-12
3.79418e-05
-8.40558e-12
4.1736e-05
-1.5608e-11
4.59096e-05
-2.33932e-11
5.05005e-05
-3.17773e-11
5.55506e-05
-4.076e-11
6.11057e-05
-5.03388e-11
6.72162e-05
-6.05066e-11
7.39378e-05
-7.1235e-11
8.13316e-05
-8.24989e-11
8.94648e-05
-9.42637e-11
9.84113e-05
-1.06477e-10
0.000108252
-1.19072e-10
0.000119078
-1.31966e-10
0.000130985
-1.4503e-10
0.000144084
-1.58125e-10
0.000158492
-1.71036e-10
0.000174342
-1.8356e-10
0.000191776
-1.95358e-10
0.000210953
-2.06194e-10
0.000232049
-2.15588e-10
0.000255253
-2.23332e-10
0.000280779
-2.28779e-10
0.000308857
-2.31855e-10
0.000339742
-2.317e-10
0.000373717
-2.28455e-10
0.000411088
-2.20963e-10
0.000452197
-2.09492e-10
0.000497417
-1.9246e-10
0.000547158
-1.6994e-10
0.000601874
-1.41083e-10
0.000662062
-1.06338e-10
0.000728268
-6.61722e-11
0.000801095
-2.13553e-11
0.000881204
2.88781e-11
0.000969325
8.54197e-11
0.00106626
1.50447e-10
0.00117288
2.2534e-10
0.00129017
3.01568e-10
0.00129017
3.70229e-10
0.00117288
4.32121e-10
0.00106626
4.8761e-10
0.000969325
5.37215e-10
0.000881204
5.81232e-10
0.000801095
6.20181e-10
0.000728268
6.53597e-10
0.000662062
6.81741e-10
0.000601874
7.0328e-10
0.000547158
7.18931e-10
0.000497417
7.26991e-10
0.000452197
7.28919e-10
0.000411088
7.23179e-10
0.000373717
7.11478e-10
0.000339742
6.92936e-10
0.000308857
6.69172e-10
0.000280779
6.40063e-10
0.000255253
6.07032e-10
0.000232049
5.70495e-10
0.000210953
5.31639e-10
0.000191776
4.91104e-10
0.000174342
4.49812e-10
0.000158492
4.08378e-10
0.000144084
3.6745e-10
0.000130985
3.27491e-10
0.000119078
2.88905e-10
0.000108252
2.51967e-10
9.84113e-05
2.16886e-10
8.94648e-05
1.83789e-10
8.13316e-05
1.52739e-10
7.39378e-05
1.23752e-10
6.72162e-05
9.68e-11
6.11057e-05
7.1829e-11
5.55506e-05
4.87677e-11
5.05005e-05
2.75183e-11
4.59096e-05
7.9842e-12
4.1736e-05
3.79418e-05
-1.77651e-12
3.79418e-05
-8.49603e-12
4.1736e-05
-1.57938e-11
4.59096e-05
-2.36786e-11
5.05005e-05
-3.21694e-11
5.55506e-05
-4.12672e-11
6.11056e-05
-5.09692e-11
6.72162e-05
-6.12568e-11
7.39378e-05
-7.21145e-11
8.13316e-05
-8.35101e-11
8.94648e-05
-9.54037e-11
9.84113e-05
-1.07749e-10
0.000108252
-1.20476e-10
0.000119078
-1.33501e-10
0.000130985
-1.46697e-10
0.000144084
-1.59922e-10
0.000158492
-1.72958e-10
0.000174342
-1.85602e-10
0.000191776
-1.97514e-10
0.000210953
-2.08452e-10
0.000232049
-2.17934e-10
0.000255253
-2.2575e-10
0.000280779
-2.31245e-10
0.000308857
-2.34348e-10
0.000339742
-2.34183e-10
0.000373717
-2.30901e-10
0.000411088
-2.23323e-10
0.000452197
-2.11747e-10
0.000497417
-1.94534e-10
0.000547158
-1.71811e-10
0.000601874
-1.42703e-10
0.000662062
-1.07697e-10
0.000728268
-6.73022e-11
0.000801095
-2.22707e-11
0.000881204
2.81502e-11
0.000969325
8.4888e-11
0.00106626
1.5015e-10
0.00117288
2.25336e-10
0.00129017
3.01902e-10
0.00129017
3.7091e-10
0.00117288
4.33159e-10
0.00106626
4.89013e-10
0.000969325
5.38982e-10
0.000881204
5.83373e-10
0.000801095
6.22676e-10
0.000728268
6.56466e-10
0.000662062
6.84938e-10
0.000601874
7.06792e-10
0.000547158
7.2271e-10
0.000497417
7.30979e-10
0.000452197
7.33067e-10
0.000411088
7.27417e-10
0.000373717
7.1575e-10
0.000339742
6.97168e-10
0.000308857
6.73292e-10
0.000280779
6.43997e-10
0.000255253
6.10704e-10
0.000232049
5.73847e-10
0.000210953
5.3461e-10
0.000191776
4.93664e-10
0.000174342
4.51938e-10
0.000158492
4.10078e-10
0.000144084
3.68744e-10
0.000130985
3.28421e-10
0.000119078
2.89518e-10
0.000108252
2.52327e-10
9.84113e-05
2.17055e-10
8.94648e-05
1.83825e-10
8.13316e-05
1.52697e-10
7.39378e-05
1.23677e-10
6.72162e-05
9.67306e-11
6.11057e-05
7.17955e-11
5.55506e-05
4.87799e-11
5.05005e-05
2.76015e-11
4.59096e-05
8.13751e-12
4.1736e-05
3.79418e-05
-1.83328e-12
3.79418e-05
-8.59284e-12
4.1736e-05
-1.59234e-11
4.59096e-05
-2.38531e-11
5.05005e-05
-3.23909e-11
5.55506e-05
-4.15431e-11
6.11056e-05
-5.13071e-11
6.72162e-05
-6.16655e-11
7.39378e-05
-7.25957e-11
8.13316e-05
-8.40772e-11
8.94648e-05
-9.60642e-11
9.84112e-05
-1.08515e-10
0.000108252
-1.21352e-10
0.000119078
-1.34497e-10
0.000130985
-1.47819e-10
0.000144084
-1.61176e-10
0.000158492
-1.74346e-10
0.000174342
-1.87125e-10
0.000191776
-1.99167e-10
0.000210953
-2.10233e-10
0.000232049
-2.19826e-10
0.000255253
-2.27743e-10
0.000280779
-2.33313e-10
0.000308857
-2.36472e-10
0.000339742
-2.36327e-10
0.000373717
-2.33039e-10
0.000411088
-2.2541e-10
0.000452197
-2.13742e-10
0.000497417
-1.96405e-10
0.000547158
-1.73506e-10
0.000601874
-1.44199e-10
0.000662062
-1.08987e-10
0.000728268
-6.83691e-11
0.000801095
-2.31544e-11
0.000881204
2.74561e-11
0.000969324
8.43815e-11
0.00106626
1.49866e-10
0.00117288
2.2533e-10
0.00129017
3.02219e-10
0.00129017
3.71564e-10
0.00117288
4.34164e-10
0.00106626
4.90375e-10
0.000969324
5.40711e-10
0.000881204
5.85457e-10
0.000801095
6.25136e-10
0.000728268
6.59255e-10
0.000662062
6.8807e-10
0.000601874
7.10204e-10
0.000547158
7.26385e-10
0.000497417
7.34857e-10
0.000452197
7.37112e-10
0.000411088
7.31569e-10
0.000373717
7.19974e-10
0.000339742
7.01411e-10
0.000308857
6.77539e-10
0.000280779
6.48218e-10
0.000255253
6.14903e-10
0.000232049
5.78012e-10
0.000210953
5.38752e-10
0.000191776
4.97768e-10
0.000174342
4.56001e-10
0.000158492
4.14071e-10
0.000144084
3.72637e-10
0.000130985
3.32168e-10
0.000119078
2.93075e-10
0.000108252
2.55643e-10
9.84112e-05
2.20082e-10
8.94648e-05
1.86519e-10
8.13316e-05
1.55022e-10
7.39378e-05
1.25611e-10
6.72162e-05
9.8258e-11
6.11057e-05
7.29154e-11
5.55506e-05
4.94978e-11
5.05005e-05
2.79243e-11
4.59096e-05
8.08383e-12
4.1736e-05
3.79418e-05
-1.83379e-12
3.79418e-05
-8.65465e-12
4.1736e-05
-1.60594e-11
4.59096e-05
-2.40636e-11
5.05005e-05
-3.26798e-11
5.55506e-05
-4.19131e-11
6.11056e-05
-5.17569e-11
6.72162e-05
-6.21996e-11
7.39378e-05
-7.32216e-11
8.13316e-05
-8.47915e-11
8.94648e-05
-9.68692e-11
9.84112e-05
-1.0941e-10
0.000108252
-1.22341e-10
0.000119078
-1.3558e-10
0.000130985
-1.48992e-10
0.000144084
-1.6244e-10
0.000158492
-1.757e-10
0.000174342
-1.88566e-10
0.000191776
-2.00694e-10
0.000210953
-2.11837e-10
0.000232049
-2.21504e-10
0.000255253
-2.29486e-10
0.000280779
-2.35109e-10
0.000308857
-2.38308e-10
0.000339742
-2.3818e-10
0.000373717
-2.34892e-10
0.000411088
-2.27231e-10
0.000452197
-2.15516e-10
0.000497417
-1.98072e-10
0.000547158
-1.75044e-10
0.000601874
-1.45564e-10
0.000662062
-1.10153e-10
0.000728268
-6.93615e-11
0.000801095
-2.39667e-11
0.000881204
2.6802e-11
0.000969324
8.39e-11
0.00106626
1.49592e-10
0.00117288
2.25321e-10
0.00129017
3.02517e-10
0.00129017
3.72184e-10
0.00117288
4.35118e-10
0.00106626
4.91671e-10
0.000969324
5.42348e-10
0.000881204
5.87449e-10
0.000801095
6.27461e-10
0.000728268
6.6194e-10
0.000662062
6.91069e-10
0.000601874
7.13509e-10
0.000547158
7.29948e-10
0.000497417
7.38625e-10
0.000452197
7.41039e-10
0.000411088
7.35585e-10
0.000373717
7.24021e-10
0.000339742
7.05412e-10
0.000308857
6.81416e-10
0.000280779
6.51889e-10
0.000255253
6.18284e-10
0.000232049
5.81032e-10
0.000210953
5.41348e-10
0.000191776
4.99905e-10
0.000174342
4.57655e-10
0.000158492
4.15257e-10
0.000144084
3.73386e-10
0.000130985
3.32535e-10
0.000119078
2.93125e-10
0.000108252
2.55451e-10
9.84112e-05
2.19728e-10
8.94648e-05
1.86078e-10
8.13316e-05
1.54562e-10
7.39378e-05
1.25185e-10
6.72162e-05
9.7913e-11
6.11057e-05
7.26795e-11
5.55506e-05
4.93973e-11
5.05005e-05
2.79645e-11
4.59096e-05
8.27117e-12
4.1736e-05
3.79418e-05
-1.88203e-12
3.79418e-05
-8.72137e-12
4.1736e-05
-1.61411e-11
4.59096e-05
-2.41655e-11
5.05005e-05
-3.28085e-11
5.55506e-05
-4.20719e-11
6.11056e-05
-5.19504e-11
6.72162e-05
-6.24331e-11
7.39378e-05
-7.35036e-11
8.13316e-05
-8.51288e-11
8.94648e-05
-9.7271e-11
9.84112e-05
-1.09879e-10
0.000108252
-1.22886e-10
0.000119078
-1.36206e-10
0.000130985
-1.49708e-10
0.000144084
-1.6325e-10
0.000158492
-1.76608e-10
0.000174342
-1.89575e-10
0.000191776
-2.01801e-10
0.000210953
-2.13046e-10
0.000232049
-2.22804e-10
0.000255253
-2.30874e-10
0.000280779
-2.36566e-10
0.000308857
-2.39827e-10
0.000339742
-2.39737e-10
0.000373716
-2.36471e-10
0.000411088
-2.28801e-10
0.000452197
-2.17043e-10
0.000497417
-1.99536e-10
0.000547158
-1.76399e-10
0.000601874
-1.46787e-10
0.000662062
-1.11238e-10
0.000728268
-7.02732e-11
0.000801094
-2.47369e-11
0.000881204
2.61881e-11
0.000969324
8.34433e-11
0.00106626
1.49324e-10
0.00117288
2.25293e-10
0.00129017
3.02775e-10
0.00129017
3.72746e-10
0.00117288
4.35999e-10
0.00106626
4.9288e-10
0.000969324
5.43898e-10
0.000881204
5.89331e-10
0.000801094
6.29703e-10
0.000728268
6.64494e-10
0.000662062
6.93957e-10
0.000601874
7.16667e-10
0.000547158
7.33366e-10
0.000497417
7.42246e-10
0.000452197
7.44833e-10
0.000411088
7.39495e-10
0.000373717
7.28018e-10
0.000339742
7.09452e-10
0.000308857
6.85492e-10
0.000280779
6.55981e-10
0.000255253
6.22409e-10
0.000232049
5.85187e-10
0.000210953
5.45549e-10
0.000191776
5.04145e-10
0.000174342
4.6193e-10
0.000158492
4.1953e-10
0.000144084
3.77618e-10
0.000130985
3.36665e-10
0.000119078
2.97089e-10
0.000108252
2.5918e-10
9.84112e-05
2.23154e-10
8.94648e-05
1.89141e-10
8.13316e-05
1.57212e-10
7.39378e-05
1.27389e-10
6.72162e-05
9.96446e-11
6.11056e-05
7.39356e-11
5.55506e-05
5.01719e-11
5.05005e-05
2.82781e-11
4.59096e-05
8.14648e-12
4.1736e-05
3.79418e-05
-1.8793e-12
3.79418e-05
-8.7623e-12
4.1736e-05
-1.62257e-11
4.59096e-05
-2.42977e-11
5.05005e-05
-3.2993e-11
5.55506e-05
-4.23117e-11
6.11056e-05
-5.22488e-11
6.72162e-05
-6.27907e-11
7.39378e-05
-7.39179e-11
8.13316e-05
-8.5601e-11
8.94648e-05
-9.77999e-11
9.84112e-05
-1.10468e-10
0.000108252
-1.23534e-10
0.000119078
-1.36913e-10
0.000130985
-1.50475e-10
0.000144084
-1.64077e-10
0.000158492
-1.77497e-10
0.000174341
-1.90523e-10
0.000191776
-2.0281e-10
0.000210953
-2.14113e-10
0.000232049
-2.2393e-10
0.000255253
-2.32054e-10
0.000280779
-2.37797e-10
0.000308857
-2.41101e-10
0.000339742
-2.41043e-10
0.000373716
-2.378e-10
0.000411088
-2.30131e-10
0.000452197
-2.18368e-10
0.000497417
-2.00807e-10
0.000547158
-1.77597e-10
0.000601874
-1.47876e-10
0.000662062
-1.12184e-10
0.000728268
-7.11027e-11
0.000801094
-2.54287e-11
0.000881204
2.56147e-11
0.000969324
8.30064e-11
0.00106626
1.49055e-10
0.00117288
2.25245e-10
0.00129017
3.02991e-10
0.00129017
3.73242e-10
0.00117288
4.3679e-10
0.00106626
4.93977e-10
0.000969324
5.45303e-10
0.000881204
5.91063e-10
0.000801094
6.31744e-10
0.000728268
6.66878e-10
0.000662062
6.96639e-10
0.000601874
7.19647e-10
0.000547158
7.36599e-10
0.000497417
7.45681e-10
0.000452197
7.48426e-10
0.000411088
7.4318e-10
0.000373716
7.31732e-10
0.000339742
7.13117e-10
0.000308857
6.89023e-10
0.000280779
6.59292e-10
0.000255253
6.25402e-10
0.000232049
5.87786e-10
0.000210953
5.4768e-10
0.000191776
5.05771e-10
0.000174342
4.6303e-10
0.000158492
4.20125e-10
0.000144084
3.77747e-10
0.000130985
3.36399e-10
0.000119078
2.96512e-10
0.000108252
2.58383e-10
9.84112e-05
2.22233e-10
8.94648e-05
1.88186e-10
8.13316e-05
1.563e-10
7.39378e-05
1.2659e-10
6.72162e-05
9.90084e-11
6.11056e-05
7.34917e-11
5.55506e-05
4.99521e-11
5.05005e-05
2.82843e-11
4.59096e-05
8.38459e-12
4.1736e-05
3.79418e-05
-1.91665e-12
3.79418e-05
-8.80097e-12
4.1736e-05
-1.62748e-11
4.59096e-05
-2.43564e-11
5.05005e-05
-3.30636e-11
5.55506e-05
-4.23914e-11
6.11056e-05
-5.23425e-11
6.72162e-05
-6.29073e-11
7.39378e-05
-7.40572e-11
8.13316e-05
-8.57692e-11
8.94647e-05
-9.8005e-11
9.84112e-05
-1.10712e-10
0.000108252
-1.23825e-10
0.000119078
-1.37258e-10
0.000130985
-1.50878e-10
0.000144084
-1.64545e-10
0.000158492
-1.7803e-10
0.000174341
-1.9113e-10
0.000191776
-2.0349e-10
0.000210953
-2.14869e-10
0.000232049
-2.24756e-10
0.000255253
-2.32952e-10
0.000280779
-2.38758e-10
0.000308857
-2.42121e-10
0.000339742
-2.42108e-10
0.000373716
-2.38899e-10
0.000411088
-2.31247e-10
0.000452197
-2.19474e-10
0.000497417
-2.01895e-10
0.000547158
-1.78628e-10
0.000601874
-1.48828e-10
0.000662061
-1.13056e-10
0.000728268
-7.18498e-11
0.000801094
-2.60804e-11
0.000881204
2.50787e-11
0.000969324
8.25864e-11
0.00106626
1.48778e-10
0.00117288
2.2516e-10
0.00129017
3.03139e-10
0.00129017
3.73647e-10
0.00117288
4.37468e-10
0.00106626
4.94942e-10
0.000969324
5.46572e-10
0.000881204
5.92628e-10
0.000801094
6.33642e-10
0.000728268
6.69059e-10
0.000662061
6.99134e-10
0.000601874
7.22393e-10
0.000547158
7.39592e-10
0.000497417
7.48874e-10
0.000452197
7.51793e-10
0.000411088
7.4667e-10
0.000373716
7.35327e-10
0.000339742
7.16782e-10
0.000308857
6.92763e-10
0.000280779
6.631e-10
0.000255253
6.29309e-10
0.000232049
5.91799e-10
0.000210953
5.51828e-10
0.000191776
5.10048e-10
0.000174341
4.67431e-10
0.000158492
4.24606e-10
0.000144084
3.82257e-10
0.000130985
3.40861e-10
0.000119078
3.00841e-10
0.000108252
2.62494e-10
9.84112e-05
2.26035e-10
8.94648e-05
1.91601e-10
8.13316e-05
1.59272e-10
7.39378e-05
1.29062e-10
6.72162e-05
1.00952e-10
6.11056e-05
7.48913e-11
5.55506e-05
5.08052e-11
5.05005e-05
2.86061e-11
4.59096e-05
8.1908e-12
4.17359e-05
3.79418e-05
-1.90959e-12
3.79418e-05
-8.822e-12
4.1736e-05
-1.63261e-11
4.59096e-05
-2.44419e-11
5.05005e-05
-3.31796e-11
5.55506e-05
-4.25461e-11
6.11056e-05
-5.25323e-11
6.72162e-05
-6.31302e-11
7.39378e-05
-7.43187e-11
8.13316e-05
-8.60663e-11
8.94647e-05
-9.83365e-11
9.84112e-05
-1.11081e-10
0.000108252
-1.24229e-10
0.000119078
-1.37698e-10
0.000130985
-1.51353e-10
0.000144084
-1.65055e-10
0.000158492
-1.78578e-10
0.000174341
-1.91715e-10
0.000191776
-2.04114e-10
0.000210953
-2.15532e-10
0.000232048
-2.25462e-10
0.000255253
-2.33698e-10
0.000280779
-2.39547e-10
0.000308857
-2.42948e-10
0.000339742
-2.42972e-10
0.000373716
-2.39796e-10
0.000411088
-2.32165e-10
0.000452197
-2.20413e-10
0.000497417
-2.02815e-10
0.000547158
-1.79517e-10
0.000601874
-1.4966e-10
0.000662061
-1.13794e-10
0.000728268
-7.25214e-11
0.000801094
-2.66581e-11
0.000881204
2.45752e-11
0.000969324
8.2175e-11
0.00106626
1.48486e-10
0.00117288
2.25033e-10
0.00129017
3.03219e-10
0.00129017
3.73954e-10
0.00117288
4.3802e-10
0.00106626
4.9575e-10
0.000969324
5.47642e-10
0.000881204
5.93985e-10
0.000801094
6.35264e-10
0.000728268
6.70993e-10
0.000662061
7.01332e-10
0.000601874
7.24867e-10
0.000547158
7.42299e-10
0.000497417
7.51769e-10
0.000452197
7.54837e-10
0.000411088
7.49801e-10
0.000373716
7.38485e-10
0.000339742
7.19888e-10
0.000308857
6.95729e-10
0.000280779
6.65833e-10
0.000255253
6.31704e-10
0.000232048
5.93775e-10
0.000210953
5.53302e-10
0.000191776
5.10984e-10
0.000174341
4.67806e-10
0.000158492
4.24448e-10
0.000144084
3.81618e-10
0.000130985
3.39825e-10
0.000119078
2.9951e-10
0.000108252
2.60977e-10
9.84112e-05
2.24443e-10
8.94648e-05
1.90041e-10
8.13316e-05
1.57835e-10
7.39378e-05
1.27823e-10
6.72162e-05