/*--------------------------------*- C++ -*----------------------------------*\
| =========                 |                                                 |
| \\      /  F ield         | OpenFOAM: The Open Source CFD Toolbox           |
|  \\    /   O peration     | Version:  5.x                                   |
|   \\  /    A nd           | Web:      www.OpenFOAM.org                      |
|    \\/     M anipulation  |                                                 |
\*---------------------------------------------------------------------------*/
FoamFile
{
    version     2.0;
    format      ascii;
    class       volVectorField;
    location    "0";
    object      U;
}
// * * * * * * * * * * * * * * * * * * * * * * * * * * * * * * * * * * * * * //

dimensions      [0 1 -1 0 0 0 0];

internalField   nonuniform List<vector> 
128808
(
(44.2 -1.15676e-08 0)
(44.2 -1.66684e-07 0)
(44.2 -4.67534e-07 0)
(44.2 -7.96671e-07 0)
(44.2 -1.15583e-06 0)
(44.2 -1.54687e-06 0)
(44.2 -1.97147e-06 0)
(44.2 -2.43085e-06 0)
(44.2 -2.92587e-06 0)
(44.2 -3.45686e-06 0)
(44.2 -4.02345e-06 0)
(44.2 -4.62464e-06 0)
(44.2 -5.25834e-06 0)
(44.2 -5.92135e-06 0)
(44.2 -6.60925e-06 0)
(44.2 -7.31602e-06 0)
(44.2 -8.03364e-06 0)
(44.2 -8.75193e-06 0)
(44.2 -9.45786e-06 0)
(44.2 -1.01361e-05 0)
(44.2 -1.07676e-05 0)
(44.2 -1.13314e-05 0)
(44.2 -1.18026e-05 0)
(44.2 -1.2156e-05 0)
(44.2 -1.23618e-05 0)
(44.2 -1.23925e-05 0)
(44.2 -1.22142e-05 0)
(44.2 -1.17975e-05 0)
(44.2 -1.11022e-05 0)
(44.2 -1.00935e-05 0)
(44.2 -8.72569e-06 0)
(44.2 -6.95943e-06 0)
(44.2 -4.80146e-06 0)
(44.2 -2.26975e-06 0)
(44.2 6.15148e-07 0)
(44.2 3.863e-06 0)
(44.2 7.54075e-06 0)
(44.2 1.17532e-05 0)
(44.2 1.62917e-05 0)
(44.2 2.06335e-05 0)
(44.2 2.45333e-05 0)
(44.2 2.80198e-05 0)
(44.2 3.1108e-05 0)
(44.2 3.38135e-05 0)
(44.2 3.61537e-05 0)
(44.2 3.81266e-05 0)
(44.2 3.97286e-05 0)
(44.2 4.09349e-05 0)
(44.2 4.17298e-05 0)
(44.2 4.20955e-05 0)
(44.2 4.20362e-05 0)
(44.2 4.15648e-05 0)
(44.2 4.0703e-05 0)
(44.2 3.94897e-05 0)
(44.2 3.79615e-05 0)
(44.2 3.61718e-05 0)
(44.2 3.41673e-05 0)
(44.2 3.20044e-05 0)
(44.2 2.97315e-05 0)
(44.2 2.73989e-05 0)
(44.2 2.50482e-05 0)
(44.2 2.27179e-05 0)
(44.2 2.04384e-05 0)
(44.2 1.8235e-05 0)
(44.2 1.6126e-05 0)
(44.2 1.41248e-05 0)
(44.2 1.22398e-05 0)
(44.2 1.04754e-05 0)
(44.2 8.83258e-06 0)
(44.2 7.31001e-06 0)
(44.2 5.90423e-06 0)
(44.2 4.6103e-06 0)
(44.2 3.42259e-06 0)
(44.2 2.33486e-06 0)
(44.2 1.34056e-06 0)
(44.2 4.3298e-07 0)
(44.2 -2.89231e-08 0)
(44.2 -2.23584e-07 0)
(44.2 -5.69698e-07 0)
(44.2 -9.45863e-07 0)
(44.2 -1.35331e-06 0)
(44.2 -1.79298e-06 0)
(44.2 -2.26551e-06 0)
(44.2 -2.77108e-06 0)
(44.2 -3.30937e-06 0)
(44.2 -3.8797e-06 0)
(44.2 -4.48101e-06 0)
(44.2 -5.11142e-06 0)
(44.2 -5.76853e-06 0)
(44.2 -6.44902e-06 0)
(44.2 -7.14837e-06 0)
(44.2 -7.86056e-06 0)
(44.2 -8.57741e-06 0)
(44.2 -9.28866e-06 0)
(44.2 -9.98109e-06 0)
(44.2 -1.06394e-05 0)
(44.2 -1.12445e-05 0)
(44.2 -1.17766e-05 0)
(44.2 -1.22113e-05 0)
(44.2 -1.25256e-05 0)
(44.2 -1.26906e-05 0)
(44.2 -1.26818e-05 0)
(44.2 -1.24654e-05 0)
(44.2 -1.20131e-05 0)
(44.2 -1.12825e-05 0)
(44.2 -1.02365e-05 0)
(44.2 -8.8331e-06 0)
(44.2 -7.02482e-06 0)
(44.2 -4.8299e-06 0)
(44.2 -2.28988e-06 0)
(44.2 5.84272e-07 0)
(44.2 3.8253e-06 0)
(44.2 7.50809e-06 0)
(44.2 1.17346e-05 0)
(44.2 1.62897e-05 0)
(44.2 2.06445e-05 0)
(44.2 2.45549e-05 0)
(44.2 2.80534e-05 0)
(44.2 3.11581e-05 0)
(44.2 3.38875e-05 0)
(44.2 3.62654e-05 0)
(44.2 3.82936e-05 0)
(44.2 3.99644e-05 0)
(44.2 4.12504e-05 0)
(44.2 4.21385e-05 0)
(44.2 4.26081e-05 0)
(44.2 4.26612e-05 0)
(44.2 4.23073e-05 0)
(44.2 4.15627e-05 0)
(44.2 4.04618e-05 0)
(44.2 3.90353e-05 0)
(44.2 3.73324e-05 0)
(44.2 3.53955e-05 0)
(44.2 3.32787e-05 0)
(44.2 3.10283e-05 0)
(44.2 2.86943e-05 0)
(44.2 2.63187e-05 0)
(44.2 2.39412e-05 0)
(44.2 2.1594e-05 0)
(44.2 1.93046e-05 0)
(44.2 1.7094e-05 0)
(44.2 1.49783e-05 0)
(44.2 1.29682e-05 0)
(44.2 1.10707e-05 0)
(44.2 9.28921e-06 0)
(44.2 7.62432e-06 0)
(44.2 6.0746e-06 0)
(44.2 4.63689e-06 0)
(44.2 3.30703e-06 0)
(44.2 2.07981e-06 0)
(44.2 9.49723e-07 0)
(44.2 2.04143e-07 0)
(44.2 -4.0654e-08 0)
(44.2 -2.60873e-07 0)
(44.2 -6.35453e-07 0)
(44.2 -1.04123e-06 0)
(44.2 -1.47896e-06 0)
(44.2 -1.94925e-06 0)
(44.2 -2.45219e-06 0)
(44.2 -2.98742e-06 0)
(44.2 -3.55433e-06 0)
(44.2 -4.15197e-06 0)
(44.2 -4.77879e-06 0)
(44.2 -5.43294e-06 0)
(44.2 -6.11195e-06 0)
(44.2 -6.81229e-06 0)
(44.2 -7.52892e-06 0)
(44.2 -8.25527e-06 0)
(44.2 -8.98241e-06 0)
(44.2 -9.69949e-06 0)
(44.2 -1.03924e-05 0)
(44.2 -1.10454e-05 0)
(44.2 -1.16392e-05 0)
(44.2 -1.21544e-05 0)
(44.2 -1.25666e-05 0)
(44.2 -1.28546e-05 0)
(44.2 -1.29899e-05 0)
(44.2 -1.29503e-05 0)
(44.2 -1.27026e-05 0)
(44.2 -1.22192e-05 0)
(44.2 -1.14559e-05 0)
(44.2 -1.03687e-05 0)
(44.2 -8.92514e-06 0)
(44.2 -7.08938e-06 0)
(44.2 -4.87825e-06 0)
(44.2 -2.32968e-06 0)
(44.2 5.47391e-07 0)
(44.2 3.79152e-06 0)
(44.2 7.4825e-06 0)
(44.2 1.17214e-05 0)
(44.2 1.62903e-05 0)
(44.2 2.06593e-05 0)
(44.2 2.45831e-05 0)
(44.2 2.80954e-05 0)
(44.2 3.12189e-05 0)
(44.2 3.39725e-05 0)
(44.2 3.63831e-05 0)
(44.2 3.84507e-05 0)
(44.2 4.01712e-05 0)
(44.2 4.15169e-05 0)
(44.2 4.24739e-05 0)
(44.2 4.30212e-05 0)
(44.2 4.31572e-05 0)
(44.2 4.28889e-05 0)
(44.2 4.2227e-05 0)
(44.2 4.12025e-05 0)
(44.2 3.98411e-05 0)
(44.2 3.81895e-05 0)
(44.2 3.62871e-05 0)
(44.2 3.41873e-05 0)
(44.2 3.19361e-05 0)
(44.2 2.95849e-05 0)
(44.2 2.71771e-05 0)
(44.2 2.47551e-05 0)
(44.2 2.23537e-05 0)
(44.2 2.0003e-05 0)
(44.2 1.77264e-05 0)
(44.2 1.55421e-05 0)
(44.2 1.34631e-05 0)
(44.2 1.14978e-05 0)
(44.2 9.65092e-06 0)
(44.2 7.92384e-06 0)
(44.2 6.31576e-06 0)
(44.2 4.82389e-06 0)
(44.2 3.4441e-06 0)
(44.2 2.17134e-06 0)
(44.2 9.99965e-07 0)
(44.2 2.19456e-07 0)
(44.2 -4.45929e-08 0)
(44.2 -2.77226e-07 0)
(44.2 -6.69245e-07 0)
(44.2 -1.09358e-06 0)
(44.2 -1.55113e-06 0)
(44.2 -2.04249e-06 0)
(44.2 -2.56756e-06 0)
(44.2 -3.12569e-06 0)
(44.2 -3.71607e-06 0)
(44.2 -4.33742e-06 0)
(44.2 -4.98781e-06 0)
(44.2 -5.66505e-06 0)
(44.2 -6.36617e-06 0)
(44.2 -7.08713e-06 0)
(44.2 -7.82244e-06 0)
(44.2 -8.565e-06 0)
(44.2 -9.30541e-06 0)
(44.2 -1.00323e-05 0)
(44.2 -1.0731e-05 0)
(44.2 -1.13856e-05 0)
(44.2 -1.19765e-05 0)
(44.2 -1.2484e-05 0)
(44.2 -1.2884e-05 0)
(44.2 -1.31555e-05 0)
(44.2 -1.32709e-05 0)
(44.2 -1.3208e-05 0)
(44.2 -1.29351e-05 0)
(44.2 -1.24247e-05 0)
(44.2 -1.16337e-05 0)
(44.2 -1.05145e-05 0)
(44.2 -9.03556e-06 0)
(44.2 -7.17174e-06 0)
(44.2 -4.94251e-06 0)
(44.2 -2.38292e-06 0)
(44.2 5.01621e-07 0)
(44.2 3.75278e-06 0)
(44.2 7.45445e-06 0)
(44.2 1.1708e-05 0)
(44.2 1.62937e-05 0)
(44.2 2.06802e-05 0)
(44.2 2.4621e-05 0)
(44.2 2.81508e-05 0)
(44.2 3.12942e-05 0)
(44.2 3.40733e-05 0)
(44.2 3.65134e-05 0)
(44.2 3.86176e-05 0)
(44.2 4.03816e-05 0)
(44.2 4.1777e-05 0)
(44.2 4.27896e-05 0)
(44.2 4.33952e-05 0)
(44.2 4.3591e-05 0)
(44.2 4.33801e-05 0)
(44.2 4.27711e-05 0)
(44.2 4.17918e-05 0)
(44.2 4.04659e-05 0)
(44.2 3.88385e-05 0)
(44.2 3.69483e-05 0)
(44.2 3.48487e-05 0)
(44.2 3.25863e-05 0)
(44.2 3.02137e-05 0)
(44.2 2.77758e-05 0)
(44.2 2.53168e-05 0)
(44.2 2.28731e-05 0)
(44.2 2.04766e-05 0)
(44.2 1.81523e-05 0)
(44.2 1.59197e-05 0)
(44.2 1.37928e-05 0)
(44.2 1.17809e-05 0)
(44.2 9.88929e-06 0)
(44.2 8.1199e-06 0)
(44.2 6.47211e-06 0)
(44.2 4.94335e-06 0)
(44.2 3.52961e-06 0)
(44.2 2.22564e-06 0)
(44.2 1.02562e-06 0)
(44.2 2.25434e-07 0)
(44.2 -4.85063e-08 0)
(44.2 -2.89901e-07 0)
(44.2 -6.91995e-07 0)
(44.2 -1.12746e-06 0)
(44.2 -1.59734e-06 0)
(44.2 -2.10192e-06 0)
(44.2 -2.64102e-06 0)
(44.2 -3.21424e-06 0)
(44.2 -3.82067e-06 0)
(44.2 -4.45894e-06 0)
(44.2 -5.12713e-06 0)
(44.2 -5.82267e-06 0)
(44.2 -6.54232e-06 0)
(44.2 -7.28184e-06 0)
(44.2 -8.03534e-06 0)
(44.2 -8.79529e-06 0)
(44.2 -9.55172e-06 0)
(44.2 -1.02926e-05 0)
(44.2 -1.10029e-05 0)
(44.2 -1.1666e-05 0)
(44.2 -1.22616e-05 0)
(44.2 -1.277e-05 0)
(44.2 -1.31666e-05 0)
(44.2 -1.34302e-05 0)
(44.2 -1.35334e-05 0)
(44.2 -1.34542e-05 0)
(44.2 -1.31615e-05 0)
(44.2 -1.26276e-05 0)
(44.2 -1.1811e-05 0)
(44.2 -1.06639e-05 0)
(44.2 -9.15582e-06 0)
(44.2 -7.26684e-06 0)
(44.2 -5.01828e-06 0)
(44.2 -2.44493e-06 0)
(44.2 4.50087e-07 0)
(44.2 3.71121e-06 0)
(44.2 7.42514e-06 0)
(44.2 1.16947e-05 0)
(44.2 1.62992e-05 0)
(44.2 2.07052e-05 0)
(44.2 2.46653e-05 0)
(44.2 2.82149e-05 0)
(44.2 3.13803e-05 0)
(44.2 3.41849e-05 0)
(44.2 3.66543e-05 0)
(44.2 3.87919e-05 0)
(44.2 4.05934e-05 0)
(44.2 4.20294e-05 0)
(44.2 4.30843e-05 0)
(44.2 4.37322e-05 0)
(44.2 4.39682e-05 0)
(44.2 4.3793e-05 0)
(44.2 4.32137e-05 0)
(44.2 4.22563e-05 0)
(44.2 4.09437e-05 0)
(44.2 3.9321e-05 0)
(44.2 3.74269e-05 0)
(44.2 3.5316e-05 0)
(44.2 3.30358e-05 0)
(44.2 3.06403e-05 0)
(44.2 2.81758e-05 0)
(44.2 2.56876e-05 0)
(44.2 2.32131e-05 0)
(44.2 2.07853e-05 0)
(44.2 1.84297e-05 0)
(44.2 1.61663e-05 0)
(44.2 1.40096e-05 0)
(44.2 1.1969e-05 0)
(44.2 1.00501e-05 0)
(44.2 8.255e-06 0)
(44.2 6.58306e-06 0)
(44.2 5.0316e-06 0)
(44.2 3.59664e-06 0)
(44.2 2.27288e-06 0)
(44.2 1.0546e-06 0)
(44.2 2.35575e-07 0)
(44.2 -4.94279e-08 0)
(44.2 -2.96484e-07 0)
(44.2 -7.08519e-07 0)
(44.2 -1.15476e-06 0)
(44.2 -1.63611e-06 0)
(44.2 -2.15293e-06 0)
(44.2 -2.70506e-06 0)
(44.2 -3.292e-06 0)
(44.2 -3.91279e-06 0)
(44.2 -4.56591e-06 0)
(44.2 -5.24935e-06 0)
(44.2 -5.96054e-06 0)
(44.2 -6.696e-06 0)
(44.2 -7.45129e-06 0)
(44.2 -8.22034e-06 0)
(44.2 -8.99527e-06 0)
(44.2 -9.76575e-06 0)
(44.2 -1.05195e-05 0)
(44.2 -1.12409e-05 0)
(44.2 -1.1913e-05 0)
(44.2 -1.2515e-05 0)
(44.2 -1.30266e-05 0)
(44.2 -1.34229e-05 0)
(44.2 -1.36824e-05 0)
(44.2 -1.37776e-05 0)
(44.2 -1.36864e-05 0)
(44.2 -1.3378e-05 0)
(44.2 -1.28252e-05 0)
(44.2 -1.19862e-05 0)
(44.2 -1.08141e-05 0)
(44.2 -9.28047e-06 0)
(44.2 -7.36764e-06 0)
(44.2 -5.09956e-06 0)
(44.2 -2.51111e-06 0)
(44.2 3.96089e-07 0)
(44.2 3.66851e-06 0)
(44.2 7.39569e-06 0)
(44.2 1.16822e-05 0)
(44.2 1.63065e-05 0)
(44.2 2.07333e-05 0)
(44.2 2.47143e-05 0)
(44.2 2.82851e-05 0)
(44.2 3.14729e-05 0)
(44.2 3.43027e-05 0)
(44.2 3.67996e-05 0)
(44.2 3.89674e-05 0)
(44.2 4.08012e-05 0)
(44.2 4.22703e-05 0)
(44.2 4.33582e-05 0)
(44.2 4.40368e-05 0)
(44.2 4.43004e-05 0)
(44.2 4.4148e-05 0)
(44.2 4.35858e-05 0)
(44.2 4.26393e-05 0)
(44.2 4.13309e-05 0)
(44.2 3.97058e-05 0)
(44.2 3.78028e-05 0)
(44.2 3.56774e-05 0)
(44.2 3.33777e-05 0)
(44.2 3.09588e-05 0)
(44.2 2.8468e-05 0)
(44.2 2.59517e-05 0)
(44.2 2.34485e-05 0)
(44.2 2.09921e-05 0)
(44.2 1.86088e-05 0)
(44.2 1.63193e-05 0)
(44.2 1.41385e-05 0)
(44.2 1.2076e-05 0)
(44.2 1.01374e-05 0)
(44.2 8.3248e-06 0)
(44.2 6.63745e-06 0)
(44.2 5.07248e-06 0)
(44.2 3.62568e-06 0)
(44.2 2.29175e-06 0)
(44.2 1.06458e-06 0)
(44.2 2.38452e-07 0)
(44.2 -5.24778e-08 0)
(44.2 -3.05412e-07 0)
(44.2 -7.2327e-07 0)
(44.2 -1.17583e-06 0)
(44.2 -1.66405e-06 0)
(44.2 -2.18843e-06 0)
(44.2 -2.74895e-06 0)
(44.2 -3.34504e-06 0)
(44.2 -3.97572e-06 0)
(44.2 -4.63949e-06 0)
(44.2 -5.33437e-06 0)
(44.2 -6.05769e-06 0)
(44.2 -6.80598e-06 0)
(44.2 -7.57473e-06 0)
(44.2 -8.3576e-06 0)
(44.2 -9.14657e-06 0)
(44.2 -9.93099e-06 0)
(44.2 -1.06982e-05 0)
(44.2 -1.14321e-05 0)
(44.2 -1.21154e-05 0)
(44.2 -1.27266e-05 0)
(44.2 -1.32451e-05 0)
(44.2 -1.36452e-05 0)
(44.2 -1.39053e-05 0)
(44.2 -1.39973e-05 0)
(44.2 -1.38991e-05 0)
(44.2 -1.35798e-05 0)
(44.2 -1.30118e-05 0)
(44.2 -1.21546e-05 0)
(44.2 -1.0961e-05 0)
(44.2 -9.40476e-06 0)
(44.2 -7.47054e-06 0)
(44.2 -5.18334e-06 0)
(44.2 -2.57928e-06 0)
(44.2 3.40945e-07 0)
(44.2 3.62582e-06 0)
(44.2 7.36678e-06 0)
(44.2 1.16704e-05 0)
(44.2 1.63148e-05 0)
(44.2 2.07631e-05 0)
(44.2 2.47658e-05 0)
(44.2 2.8359e-05 0)
(44.2 3.15703e-05 0)
(44.2 3.44248e-05 0)
(44.2 3.69483e-05 0)
(44.2 3.91433e-05 0)
(44.2 4.10046e-05 0)
(44.2 4.25006e-05 0)
(44.2 4.36138e-05 0)
(44.2 4.43151e-05 0)
(44.2 4.45978e-05 0)
(44.2 4.44603e-05 0)
(44.2 4.39082e-05 0)
(44.2 4.29671e-05 0)
(44.2 4.16595e-05 0)
(44.2 4.00311e-05 0)
(44.2 3.81215e-05 0)
(44.2 3.59867e-05 0)
(44.2 3.36755e-05 0)
(44.2 3.12436e-05 0)
(44.2 2.87385e-05 0)
(44.2 2.6207e-05 0)
(44.2 2.36878e-05 0)
(44.2 2.12145e-05 0)
(44.2 1.88136e-05 0)
(44.2 1.65058e-05 0)
(44.2 1.43059e-05 0)
(44.2 1.22239e-05 0)
(44.2 1.02654e-05 0)
(44.2 8.4329e-06 0)
(44.2 6.72596e-06 0)
(44.2 5.14189e-06 0)
(44.2 3.6765e-06 0)
(44.2 2.32473e-06 0)
(44.2 1.08057e-06 0)
(44.2 2.42301e-07 0)
(44.2 -5.27231e-08 0)
(44.2 -3.09516e-07 0)
(44.2 -7.34845e-07 0)
(44.2 -1.19528e-06 0)
(44.2 -1.69198e-06 0)
(44.2 -2.2255e-06 0)
(44.2 -2.79566e-06 0)
(44.2 -3.40174e-06 0)
(44.2 -4.04282e-06 0)
(44.2 -4.71743e-06 0)
(44.2 -5.42335e-06 0)
(44.2 -6.15794e-06 0)
(44.2 -6.91764e-06 0)
(44.2 -7.69781e-06 0)
(44.2 -8.49208e-06 0)
(44.2 -9.29225e-06 0)
(44.2 -1.00875e-05 0)
(44.2 -1.0865e-05 0)
(44.2 -1.16084e-05 0)
(44.2 -1.23002e-05 0)
(44.2 -1.29184e-05 0)
(44.2 -1.34421e-05 0)
(44.2 -1.38455e-05 0)
(44.2 -1.41063e-05 0)
(44.2 -1.4196e-05 0)
(44.2 -1.40927e-05 0)
(44.2 -1.3765e-05 0)
(44.2 -1.31858e-05 0)
(44.2 -1.23138e-05 0)
(44.2 -1.11024e-05 0)
(44.2 -9.52646e-06 0)
(44.2 -7.57189e-06 0)
(44.2 -5.26642e-06 0)
(44.2 -2.64685e-06 0)
(44.2 2.86654e-07 0)
(44.2 3.58393e-06 0)
(44.2 7.33879e-06 0)
(44.2 1.16595e-05 0)
(44.2 1.63243e-05 0)
(44.2 2.07943e-05 0)
(44.2 2.48192e-05 0)
(44.2 2.84351e-05 0)
(44.2 3.16696e-05 0)
(44.2 3.45483e-05 0)
(44.2 3.70962e-05 0)
(44.2 3.93162e-05 0)
(44.2 4.12021e-05 0)
(44.2 4.27214e-05 0)
(44.2 4.3856e-05 0)
(44.2 4.45753e-05 0)
(44.2 4.48724e-05 0)
(44.2 4.47453e-05 0)
(44.2 4.41991e-05 0)
(44.2 4.32593e-05 0)
(44.2 4.19484e-05 0)
(44.2 4.0312e-05 0)
(44.2 3.83899e-05 0)
(44.2 3.62386e-05 0)
(44.2 3.39074e-05 0)
(44.2 3.14528e-05 0)
(44.2 2.89234e-05 0)
(44.2 2.63668e-05 0)
(44.2 2.38228e-05 0)
(44.2 2.1326e-05 0)
(44.2 1.89037e-05 0)
(44.2 1.6577e-05 0)
(44.2 1.4361e-05 0)
(44.2 1.22657e-05 0)
(44.2 1.02968e-05 0)
(44.2 8.45627e-06 0)
(44.2 6.74347e-06 0)
(44.2 5.1555e-06 0)
(44.2 3.68758e-06 0)
(44.2 2.33415e-06 0)
(44.2 1.08931e-06 0)
(44.2 2.4665e-07 0)
(44.2 -5.48897e-08 0)
(44.2 -3.15463e-07 0)
(44.2 -7.44424e-07 0)
(44.2 -1.20904e-06 0)
(44.2 -1.71029e-06 0)
(44.2 -2.24866e-06 0)
(44.2 -2.82407e-06 0)
(44.2 -3.43622e-06 0)
(44.2 -4.084e-06 0)
(44.2 -4.76576e-06 0)
(44.2 -5.47965e-06 0)
(44.2 -6.22299e-06 0)
(44.2 -6.99206e-06 0)
(44.2 -7.7822e-06 0)
(44.2 -8.58688e-06 0)
(44.2 -9.39783e-06 0)
(44.2 -1.0204e-05 0)
(44.2 -1.09925e-05 0)
(44.2 -1.17465e-05 0)
(44.2 -1.24482e-05 0)
(44.2 -1.30753e-05 0)
(44.2 -1.36065e-05 0)
(44.2 -1.40155e-05 0)
(44.2 -1.42797e-05 0)
(44.2 -1.43702e-05 0)
(44.2 -1.42649e-05 0)
(44.2 -1.3932e-05 0)
(44.2 -1.33441e-05 0)
(44.2 -1.24605e-05 0)
(44.2 -1.12344e-05 0)
(44.2 -9.64174e-06 0)
(44.2 -7.67006e-06 0)
(44.2 -5.34781e-06 0)
(44.2 -2.71336e-06 0)
(44.2 2.33206e-07 0)
(44.2 3.54324e-06 0)
(44.2 7.31189e-06 0)
(44.2 1.16494e-05 0)
(44.2 1.63342e-05 0)
(44.2 2.08258e-05 0)
(44.2 2.48729e-05 0)
(44.2 2.85117e-05 0)
(44.2 3.17696e-05 0)
(44.2 3.46719e-05 0)
(44.2 3.72439e-05 0)
(44.2 3.94872e-05 0)
(44.2 4.13956e-05 0)
(44.2 4.29357e-05 0)
(44.2 4.40886e-05 0)
(44.2 4.48237e-05 0)
(44.2 4.51333e-05 0)
(44.2 4.50151e-05 0)
(44.2 4.44744e-05 0)
(44.2 4.35369e-05 0)
(44.2 4.22255e-05 0)
(44.2 4.05864e-05 0)
(44.2 3.866e-05 0)
(44.2 3.65034e-05 0)
(44.2 3.41662e-05 0)
(44.2 3.17051e-05 0)
(44.2 2.91685e-05 0)
(44.2 2.66039e-05 0)
(44.2 2.40507e-05 0)
(44.2 2.15432e-05 0)
(44.2 1.91083e-05 0)
(44.2 1.67671e-05 0)
(44.2 1.45345e-05 0)
(44.2 1.24209e-05 0)
(44.2 1.04324e-05 0)
(44.2 8.57123e-06 0)
(44.2 6.83711e-06 0)
(44.2 5.22751e-06 0)
(44.2 3.7385e-06 0)
(44.2 2.36487e-06 0)
(44.2 1.10058e-06 0)
(44.2 2.47511e-07 0)
(44.2 -5.50718e-08 0)
(44.2 -3.18449e-07 0)
(44.2 -7.52987e-07 0)
(44.2 -1.22365e-06 0)
(44.2 -1.73129e-06 0)
(44.2 -2.27654e-06 0)
(44.2 -2.85933e-06 0)
(44.2 -3.47901e-06 0)
(44.2 -4.13452e-06 0)
(44.2 -4.82437e-06 0)
(44.2 -5.54634e-06 0)
(44.2 -6.29776e-06 0)
(44.2 -7.075e-06 0)
(44.2 -7.87329e-06 0)
(44.2 -8.68613e-06 0)
(44.2 -9.50518e-06 0)
(44.2 -1.03193e-05 0)
(44.2 -1.11154e-05 0)
(44.2 -1.18766e-05 0)
(44.2 -1.2585e-05 0)
(44.2 -1.3218e-05 0)
(44.2 -1.37542e-05 0)
(44.2 -1.41669e-05 0)
(44.2 -1.44334e-05 0)
(44.2 -1.45245e-05 0)
(44.2 -1.44176e-05 0)
(44.2 -1.4081e-05 0)
(44.2 -1.34872e-05 0)
(44.2 -1.25947e-05 0)
(44.2 -1.13567e-05 0)
(44.2 -9.74996e-06 0)
(44.2 -7.76241e-06 0)
(44.2 -5.42497e-06 0)
(44.2 -2.77676e-06 0)
(44.2 1.82266e-07 0)
(44.2 3.50419e-06 0)
(44.2 7.28618e-06 0)
(44.2 1.16401e-05 0)
(44.2 1.63444e-05 0)
(44.2 2.08572e-05 0)
(44.2 2.49262e-05 0)
(44.2 2.85874e-05 0)
(44.2 3.18679e-05 0)
(44.2 3.47931e-05 0)
(44.2 3.73876e-05 0)
(44.2 3.96535e-05 0)
(44.2 4.15836e-05 0)
(44.2 4.31437e-05 0)
(44.2 4.43147e-05 0)
(44.2 4.50644e-05 0)
(44.2 4.53855e-05 0)
(44.2 4.52751e-05 0)
(44.2 4.47383e-05 0)
(44.2 4.38005e-05 0)
(44.2 4.24843e-05 0)
(44.2 4.0836e-05 0)
(44.2 3.88958e-05 0)
(44.2 3.67212e-05 0)
(44.2 3.43622e-05 0)
(44.2 3.18766e-05 0)
(44.2 2.93137e-05 0)
(44.2 2.67226e-05 0)
(44.2 2.41435e-05 0)
(44.2 2.16121e-05 0)
(44.2 1.91561e-05 0)
(44.2 1.67972e-05 0)
(44.2 1.45509e-05 0)
(44.2 1.24273e-05 0)
(44.2 1.04322e-05 0)
(44.2 8.5676e-06 0)
(44.2 6.83263e-06 0)
(44.2 5.22432e-06 0)
(44.2 3.73784e-06 0)
(44.2 2.36783e-06 0)
(44.2 1.10791e-06 0)
(44.2 2.52263e-07 0)
(44.2 -5.68319e-08 0)
(44.2 -3.2321e-07 0)
(44.2 -7.60006e-07 0)
(44.2 -1.23308e-06 0)
(44.2 -1.74357e-06 0)
(44.2 -2.29196e-06 0)
(44.2 -2.87836e-06 0)
(44.2 -3.50216e-06 0)
(44.2 -4.16211e-06 0)
(44.2 -4.85687e-06 0)
(44.2 -5.5844e-06 0)
(44.2 -6.34196e-06 0)
(44.2 -7.1259e-06 0)
(44.2 -7.93136e-06 0)
(44.2 -8.75183e-06 0)
(44.2 -9.57888e-06 0)
(44.2 -1.04012e-05 0)
(44.2 -1.12056e-05 0)
(44.2 -1.19751e-05 0)
(44.2 -1.26914e-05 0)
(44.2 -1.33319e-05 0)
(44.2 -1.38747e-05 0)
(44.2 -1.42928e-05 0)
(44.2 -1.45634e-05 0)
(44.2 -1.46568e-05 0)
(44.2 -1.45504e-05 0)
(44.2 -1.4212e-05 0)
(44.2 -1.36137e-05 0)
(44.2 -1.27146e-05 0)
(44.2 -1.14673e-05 0)
(44.2 -9.84887e-06 0)
(44.2 -7.84879e-06 0)
(44.2 -5.49805e-06 0)
(44.2 -2.83723e-06 0)
(44.2 1.33353e-07 0)
(44.2 3.46697e-06 0)
(44.2 7.26168e-06 0)
(44.2 1.16311e-05 0)
(44.2 1.63541e-05 0)
(44.2 2.08873e-05 0)
(44.2 2.49776e-05 0)
(44.2 2.86608e-05 0)
(44.2 3.19637e-05 0)
(44.2 3.49113e-05 0)
(44.2 3.75285e-05 0)
(44.2 3.98162e-05 0)
(44.2 4.17672e-05 0)
(44.2 4.33466e-05 0)
(44.2 4.45343e-05 0)
(44.2 4.52986e-05 0)
(44.2 4.56311e-05 0)
(44.2 4.55292e-05 0)
(44.2 4.49979e-05 0)
(44.2 4.4063e-05 0)
(44.2 4.27475e-05 0)
(44.2 4.10985e-05 0)
(44.2 3.91568e-05 0)
(44.2 3.69804e-05 0)
(44.2 3.46197e-05 0)
(44.2 3.21322e-05 0)
(44.2 2.95669e-05 0)
(44.2 2.69723e-05 0)
(44.2 2.4388e-05 0)
(44.2 2.1849e-05 0)
(44.2 1.93826e-05 0)
(44.2 1.70103e-05 0)
(44.2 1.47475e-05 0)
(44.2 1.26046e-05 0)
(44.2 1.05878e-05 0)
(44.2 8.69966e-06 0)
(44.2 6.93996e-06 0)
(44.2 5.30638e-06 0)
(44.2 3.79482e-06 0)
(44.2 2.40009e-06 0)
(44.2 1.11625e-06 0)
(44.2 2.50599e-07 0)
(44.2 -5.68477e-08 0)
(44.2 -3.25142e-07 0)
(44.2 -7.66137e-07 0)
(44.2 -1.24382e-06 0)
(44.2 -1.75905e-06 0)
(44.2 -2.31239e-06 0)
(44.2 -2.90378e-06 0)
(44.2 -3.53266e-06 0)
(44.2 -4.19807e-06 0)
(44.2 -4.89841e-06 0)
(44.2 -5.63149e-06 0)
(44.2 -6.39467e-06 0)
(44.2 -7.1843e-06 0)
(44.2 -7.99556e-06 0)
(44.2 -8.82174e-06 0)
(44.2 -9.6544e-06 0)
(44.2 -1.04824e-05 0)
(44.2 -1.12923e-05 0)
(44.2 -1.20671e-05 0)
(44.2 -1.27885e-05 0)
(44.2 -1.34336e-05 0)
(44.2 -1.39807e-05 0)
(44.2 -1.44025e-05 0)
(44.2 -1.46759e-05 0)
(44.2 -1.47711e-05 0)
(44.2 -1.46653e-05 0)
(44.2 -1.43258e-05 0)
(44.2 -1.37252e-05 0)
(44.2 -1.28213e-05 0)
(44.2 -1.15666e-05 0)
(44.2 -9.93885e-06 0)
(44.2 -7.92724e-06 0)
(44.2 -5.56496e-06 0)
(44.2 -2.89318e-06 0)
(44.2 8.78961e-08 0)
(44.2 3.43177e-06 0)
(44.2 7.23826e-06 0)
(44.2 1.16223e-05 0)
(44.2 1.6363e-05 0)
(44.2 2.09158e-05 0)
(44.2 2.50264e-05 0)
(44.2 2.87305e-05 0)
(44.2 3.20546e-05 0)
(44.2 3.50238e-05 0)
(44.2 3.76623e-05 0)
(44.2 3.99715e-05 0)
(44.2 4.19434e-05 0)
(44.2 4.3542e-05 0)
(44.2 4.47473e-05 0)
(44.2 4.55259e-05 0)
(44.2 4.58697e-05 0)
(44.2 4.57754e-05 0)
(44.2 4.52479e-05 0)
(44.2 4.43125e-05 0)
(44.2 4.29917e-05 0)
(44.2 4.13325e-05 0)
(44.2 3.93755e-05 0)
(44.2 3.71789e-05 0)
(44.2 3.47938e-05 0)
(44.2 3.22789e-05 0)
(44.2 2.96844e-05 0)
(44.2 2.70603e-05 0)
(44.2 2.4448e-05 0)
(44.2 2.18836e-05 0)
(44.2 1.93955e-05 0)
(44.2 1.70059e-05 0)
(44.2 1.47306e-05 0)
(44.2 1.258e-05 0)
(44.2 1.05599e-05 0)
(44.2 8.67217e-06 0)
(44.2 6.91605e-06 0)
(44.2 5.28838e-06 0)
(44.2 3.78439e-06 0)
(44.2 2.39822e-06 0)
(44.2 1.12331e-06 0)
(44.2 2.56407e-07 0)
(44.2 -5.83431e-08 0)
(44.2 -3.28706e-07 0)
(44.2 -7.70738e-07 0)
(44.2 -1.24951e-06 0)
(44.2 -1.7662e-06 0)
(44.2 -2.3213e-06 0)
(44.2 -2.9147e-06 0)
(44.2 -3.54589e-06 0)
(44.2 -4.21404e-06 0)
(44.2 -4.91761e-06 0)
(44.2 -5.65441e-06 0)
(44.2 -6.42166e-06 0)
(44.2 -7.21572e-06 0)
(44.2 -8.03185e-06 0)
(44.2 -8.86332e-06 0)
(44.2 -9.7017e-06 0)
(44.2 -1.05356e-05 0)
(44.2 -1.13517e-05 0)
(44.2 -1.21327e-05 0)
(44.2 -1.28603e-05 0)
(44.2 -1.35114e-05 0)
(44.2 -1.4064e-05 0)
(44.2 -1.44907e-05 0)
(44.2 -1.47682e-05 0)
(44.2 -1.48665e-05 0)
(44.2 -1.47625e-05 0)
(44.2 -1.44234e-05 0)
(44.2 -1.38212e-05 0)
(44.2 -1.2914e-05 0)
(44.2 -1.1654e-05 0)
(44.2 -1.00188e-05 0)
(44.2 -7.99879e-06 0)
(44.2 -5.62685e-06 0)
(44.2 -2.94532e-06 0)
(44.2 4.49897e-08 0)
(44.2 3.39858e-06 0)
(44.2 7.21579e-06 0)
(44.2 1.16132e-05 0)
(44.2 1.63702e-05 0)
(44.2 2.09412e-05 0)
(44.2 2.50711e-05 0)
(44.2 2.87953e-05 0)
(44.2 3.21402e-05 0)
(44.2 3.51302e-05 0)
(44.2 3.77901e-05 0)
(44.2 4.01202e-05 0)
(44.2 4.2112e-05 0)
(44.2 4.37294e-05 0)
(44.2 4.49511e-05 0)
(44.2 4.57441e-05 0)
(44.2 4.60996e-05 0)
(44.2 4.60143e-05 0)
(44.2 4.5493e-05 0)
(44.2 4.45616e-05 0)
(44.2 4.32433e-05 0)
(44.2 4.15857e-05 0)
(44.2 3.96302e-05 0)
(44.2 3.74355e-05 0)
(44.2 3.50529e-05 0)
(44.2 3.25406e-05 0)
(44.2 2.99484e-05 0)
(44.2 2.73253e-05 0)
(44.2 2.47116e-05 0)
(44.2 2.21428e-05 0)
(44.2 1.96464e-05 0)
(44.2 1.72444e-05 0)
(44.2 1.49524e-05 0)
(44.2 1.27811e-05 0)
(44.2 1.0737e-05 0)
(44.2 8.82265e-06 0)
(44.2 7.03804e-06 0)
(44.2 5.381e-06 0)
(44.2 3.84734e-06 0)
(44.2 2.43195e-06 0)
(44.2 1.12916e-06 0)
(44.2 2.52542e-07 0)
(44.2 -5.82584e-08 0)
(44.2 -3.2989e-07 0)
(44.2 -7.74631e-07 0)
(44.2 -1.25623e-06 0)
(44.2 -1.77601e-06 0)
(44.2 -2.33445e-06 0)
(44.2 -2.93138e-06 0)
(44.2 -3.56623e-06 0)
(44.2 -4.23797e-06 0)
(44.2 -4.94509e-06 0)
(44.2 -5.68544e-06 0)
(44.2 -6.45632e-06 0)
(44.2 -7.25407e-06 0)
(44.2 -8.07385e-06 0)
(44.2 -8.90903e-06 0)
(44.2 -9.75112e-06 0)
(44.2 -1.05888e-05 0)
(44.2 -1.14086e-05 0)
(44.2 -1.21934e-05 0)
(44.2 -1.29247e-05 0)
(44.2 -1.35794e-05 0)
(44.2 -1.41355e-05 0)
(44.2 -1.45654e-05 0)
(44.2 -1.48459e-05 0)
(44.2 -1.49465e-05 0)
(44.2 -1.48442e-05 0)
(44.2 -1.45059e-05 0)
(44.2 -1.39035e-05 0)
(44.2 -1.29945e-05 0)
(44.2 -1.17305e-05 0)
(44.2 -1.00897e-05 0)
(44.2 -8.06189e-06 0)
(44.2 -5.68192e-06 0)
(44.2 -2.99248e-06 0)
(44.2 5.76526e-09 0)
(44.2 3.36726e-06 0)
(44.2 7.19391e-06 0)
(44.2 1.16033e-05 0)
(44.2 1.63753e-05 0)
(44.2 2.09633e-05 0)
(44.2 2.51111e-05 0)
(44.2 2.88538e-05 0)
(44.2 3.22178e-05 0)
(44.2 3.52274e-05 0)
(44.2 3.79071e-05 0)
(44.2 4.02574e-05 0)
(44.2 4.22691e-05 0)
(44.2 4.3905e-05 0)
(44.2 4.51437e-05 0)
(44.2 4.59508e-05 0)
(44.2 4.63174e-05 0)
(44.2 4.62399e-05 0)
(44.2 4.57224e-05 0)
(44.2 4.47904e-05 0)
(44.2 4.34664e-05 0)
(44.2 4.17978e-05 0)
(44.2 3.98256e-05 0)
(44.2 3.76089e-05 0)
(44.2 3.51995e-05 0)
(44.2 3.26571e-05 0)
(44.2 3.00329e-05 0)
(44.2 2.73778e-05 0)
(44.2 2.47341e-05 0)
(44.2 2.21386e-05 0)
(44.2 1.96203e-05 0)
(44.2 1.72018e-05 0)
(44.2 1.48991e-05 0)
(44.2 1.2723e-05 0)
(44.2 1.06791e-05 0)
(44.2 8.7696e-06 0)
(44.2 6.99356e-06 0)
(44.2 5.34751e-06 0)
(44.2 3.82677e-06 0)
(44.2 2.42533e-06 0)
(44.2 1.13674e-06 0)
(44.2 2.59923e-07 0)
(44.2 -5.94163e-08 0)
(44.2 -3.32247e-07 0)
(44.2 -7.77351e-07 0)
(44.2 -1.25957e-06 0)
(44.2 -1.78003e-06 0)
(44.2 -2.33911e-06 0)
(44.2 -2.93676e-06 0)
(44.2 -3.57275e-06 0)
(44.2 -4.24591e-06 0)
(44.2 -4.95463e-06 0)
(44.2 -5.69701e-06 0)
(44.2 -6.47025e-06 0)
(44.2 -7.27068e-06 0)
(44.2 -8.09359e-06 0)
(44.2 -8.93224e-06 0)
(44.2 -9.77814e-06 0)
(44.2 -1.06198e-05 0)
(44.2 -1.1444e-05 0)
(44.2 -1.22333e-05 0)
(44.2 -1.29692e-05 0)
(44.2 -1.36284e-05 0)
(44.2 -1.4189e-05 0)
(44.2 -1.46231e-05 0)
(44.2 -1.49073e-05 0)
(44.2 -1.50111e-05 0)
(44.2 -1.49112e-05 0)
(44.2 -1.45746e-05 0)
(44.2 -1.39724e-05 0)
(44.2 -1.30624e-05 0)
(44.2 -1.17962e-05 0)
(44.2 -1.01512e-05 0)
(44.2 -8.11845e-06 0)
(44.2 -5.7321e-06 0)
(44.2 -3.03584e-06 0)
(44.2 -3.10516e-08 0)
(44.2 3.33762e-06 0)
(44.2 7.17232e-06 0)
(44.2 1.15921e-05 0)
(44.2 1.63773e-05 0)
(44.2 2.09804e-05 0)
(44.2 2.51446e-05 0)
(44.2 2.89048e-05 0)
(44.2 3.2287e-05 0)
(44.2 3.53153e-05 0)
(44.2 3.80145e-05 0)
(44.2 4.03838e-05 0)
(44.2 4.24141e-05 0)
(44.2 4.40674e-05 0)
(44.2 4.53216e-05 0)
(44.2 4.61425e-05 0)
(44.2 4.65208e-05 0)
(44.2 4.64524e-05 0)
(44.2 4.5942e-05 0)
(44.2 4.50155e-05 0)
(44.2 4.3696e-05 0)
(44.2 4.20318e-05 0)
(44.2 4.00647e-05 0)
(44.2 3.78544e-05 0)
(44.2 3.54525e-05 0)
(44.2 3.29182e-05 0)
(44.2 3.03019e-05 0)
(44.2 2.76532e-05 0)
(44.2 2.50128e-05 0)
(44.2 2.24167e-05 0)
(44.2 1.98928e-05 0)
(44.2 1.74634e-05 0)
(44.2 1.51444e-05 0)
(44.2 1.29468e-05 0)
(44.2 1.08771e-05 0)
(44.2 8.93836e-06 0)
(44.2 7.13046e-06 0)
(44.2 5.45117e-06 0)
(44.2 3.8966e-06 0)
(44.2 2.46176e-06 0)
(44.2 1.14071e-06 0)
(44.2 2.53915e-07 0)
(44.2 -5.91974e-08 0)
(44.2 -3.3268e-07 0)
(44.2 -7.79593e-07 0)
(44.2 -1.26381e-06 0)
(44.2 -1.78627e-06 0)
(44.2 -2.3475e-06 0)
(44.2 -2.94744e-06 0)
(44.2 -3.58555e-06 0)
(44.2 -4.26092e-06 0)
(44.2 -4.97195e-06 0)
(44.2 -5.7165e-06 0)
(44.2 -6.49196e-06 0)
(44.2 -7.29463e-06 0)
(44.2 -8.11975e-06 0)
(44.2 -8.9606e-06 0)
(44.2 -9.80869e-06 0)
(44.2 -1.06527e-05 0)
(44.2 -1.14791e-05 0)
(44.2 -1.22707e-05 0)
(44.2 -1.3009e-05 0)
(44.2 -1.36708e-05 0)
(44.2 -1.4234e-05 0)
(44.2 -1.46706e-05 0)
(44.2 -1.49574e-05 0)
(44.2 -1.50636e-05 0)
(44.2 -1.49658e-05 0)
(44.2 -1.46308e-05 0)
(44.2 -1.40299e-05 0)
(44.2 -1.31201e-05 0)
(44.2 -1.18523e-05 0)
(44.2 -1.02045e-05 0)
(44.2 -8.16707e-06 0)
(44.2 -5.77578e-06 0)
(44.2 -3.07457e-06 0)
(44.2 -6.45691e-08 0)
(44.2 3.30926e-06 0)
(44.2 7.15051e-06 0)
(44.2 1.15791e-05 0)
(44.2 1.63758e-05 0)
(44.2 2.09924e-05 0)
(44.2 2.51713e-05 0)
(44.2 2.89469e-05 0)
(44.2 3.23452e-05 0)
(44.2 3.53905e-05 0)
(44.2 3.81068e-05 0)
(44.2 4.04941e-05 0)
(44.2 4.25422e-05 0)
(44.2 4.42123e-05 0)
(44.2 4.54822e-05 0)
(44.2 4.63162e-05 0)
(44.2 4.67049e-05 0)
(44.2 4.66439e-05 0)
(44.2 4.61369e-05 0)
(44.2 4.52097e-05 0)
(44.2 4.38842e-05 0)
(44.2 4.22085e-05 0)
(44.2 4.02237e-05 0)
(44.2 3.79899e-05 0)
(44.2 3.55595e-05 0)
(44.2 3.29929e-05 0)
(44.2 3.03425e-05 0)
(44.2 2.76599e-05 0)
(44.2 2.49881e-05 0)
(44.2 2.23648e-05 0)
(44.2 1.98194e-05 0)
(44.2 1.73751e-05 0)
(44.2 1.50481e-05 0)
(44.2 1.2849e-05 0)
(44.2 1.07842e-05 0)
(44.2 8.85543e-06 0)
(44.2 7.06166e-06 0)
(44.2 5.39961e-06 0)
(44.2 3.86426e-06 0)
(44.2 2.44941e-06 0)
(44.2 1.14837e-06 0)
(44.2 2.62747e-07 0)
(44.1999 -6.01122e-08 0)
(44.1999 -3.34559e-07 0)
(44.1999 -7.81353e-07 0)
(44.1999 -1.26518e-06 0)
(44.1999 -1.78724e-06 0)
(44.1999 -2.34835e-06 0)
(44.1999 -2.94837e-06 0)
(44.1999 -3.58663e-06 0)
(44.1999 -4.26235e-06 0)
(44.1999 -4.97409e-06 0)
(44.1999 -5.71973e-06 0)
(44.1999 -6.4965e-06 0)
(44.1999 -7.30069e-06 0)
(44.1999 -8.12762e-06 0)
(44.1999 -8.97059e-06 0)
(44.1999 -9.82108e-06 0)
(44.1999 -1.06677e-05 0)
(44.1999 -1.1497e-05 0)
(44.1999 -1.22918e-05 0)
(44.1999 -1.30334e-05 0)
(44.1999 -1.36986e-05 0)
(44.1999 -1.42651e-05 0)
(44.1999 -1.47051e-05 0)
(44.1999 -1.49951e-05 0)
(44.1999 -1.51043e-05 0)
(44.1999 -1.50091e-05 0)
(44.1999 -1.46763e-05 0)
(44.1999 -1.40766e-05 0)
(44.1999 -1.31674e-05 0)
(44.1999 -1.18994e-05 0)
(44.1999 -1.02499e-05 0)
(44.1999 -8.21029e-06 0)
(44.1999 -5.81547e-06 0)
(44.1999 -3.11017e-06 0)
(44.1999 -9.637e-08 0)
(44.1999 3.28184e-06 0)
(44.1999 7.12808e-06 0)
(44.1999 1.15636e-05 0)
(44.1999 1.63697e-05 0)
(44.1999 2.09977e-05 0)
(44.1999 2.51894e-05 0)
(44.1999 2.8979e-05 0)
(44.1999 3.23923e-05 0)
(44.1999 3.5453e-05 0)
(44.1999 3.81859e-05 0)
(44.1999 4.05894e-05 0)
(44.1999 4.26533e-05 0)
(44.1999 4.43386e-05 0)
(44.1999 4.5622e-05 0)
(44.1999 4.64683e-05 0)
(44.1999 4.68676e-05 0)
(44.1999 4.68155e-05 0)
(44.1999 4.63161e-05 0)
(44.1999 4.53953e-05 0)
(44.1999 4.40765e-05 0)
(44.1999 4.24084e-05 0)
(44.1999 4.0433e-05 0)
(44.1999 3.82108e-05 0)
(44.1999 3.57938e-05 0)
(44.1999 3.3242e-05 0)
(44.1999 3.06062e-05 0)
(44.1999 2.79365e-05 0)
(44.1999 2.52739e-05 0)
(44.1999 2.26549e-05 0)
(44.1999 2.01078e-05 0)
(44.1999 1.7655e-05 0)
(44.1999 1.53126e-05 0)
(44.1999 1.3092e-05 0)
(44.1999 1.1e-05 0)
(44.1999 9.03949e-06 0)
(44.1999 7.21085e-06 0)
(44.1999 5.51191e-06 0)
(44.1999 3.9389e-06 0)
(44.1999 2.48679e-06 0)
(44.1999 1.14956e-06 0)
(44.1999 2.54461e-07 0)
(44.1999 -5.98182e-08 0)
(44.1999 -3.34455e-07 0)
(44.1999 -7.82266e-07 0)
(44.1999 -1.26746e-06 0)
(44.1999 -1.79109e-06 0)
(44.1999 -2.35355e-06 0)
(44.1999 -2.95491e-06 0)
(44.1999 -3.59463e-06 0)
(44.1999 -4.27182e-06 0)
(44.1999 -4.98488e-06 0)
(44.1999 -5.73174e-06 0)
(44.1999 -6.5097e-06 0)
(44.1999 -7.31508e-06 0)
(44.1999 -8.14317e-06 0)
(44.1999 -8.98725e-06 0)
(44.1999 -9.8388e-06 0)
(44.1999 -1.06865e-05 0)
(44.1999 -1.15171e-05 0)
(44.1999 -1.23131e-05 0)
(44.1999 -1.30561e-05 0)
(44.1999 -1.37227e-05 0)
(44.1999 -1.4291e-05 0)
(44.1999 -1.47327e-05 0)
(44.1999 -1.50247e-05 0)
(44.1999 -1.51359e-05 0)
(44.1999 -1.5043e-05 0)
(44.1999 -1.47121e-05 0)
(44.1999 -1.41146e-05 0)
(44.1999 -1.32067e-05 0)
(44.1999 -1.19388e-05 0)
(44.1999 -1.02886e-05 0)
(44.1999 -8.2467e-06 0)
(44.1999 -5.84951e-06 0)
(44.1999 -3.14198e-06 0)
(44.1999 -1.25696e-07 0)
(44.1999 3.25476e-06 0)
(44.1999 7.10437e-06 0)
(44.1999 1.15451e-05 0)
(44.1999 1.63588e-05 0)
(44.1999 2.09962e-05 0)
(44.1999 2.51986e-05 0)
(44.1999 2.89999e-05 0)
(44.1999 3.24256e-05 0)
(44.1999 3.54997e-05 0)
(44.1999 3.82461e-05 0)
(44.1999 4.06641e-05 0)
(44.1999 4.27427e-05 0)
(44.1999 4.44417e-05 0)
(44.1999 4.57384e-05 0)
(44.1999 4.65958e-05 0)
(44.1999 4.70038e-05 0)
(44.1999 4.69578e-05 0)
(44.1999 4.64609e-05 0)
(44.1999 4.55386e-05 0)
(44.1999 4.4213e-05 0)