/*--------------------------------*- C++ -*----------------------------------*\
| =========                 |                                                 |
| \\      /  F ield         | OpenFOAM: The Open Source CFD Toolbox           |
|  \\    /   O peration     | Version:  5.x                                   |
|   \\  /    A nd           | Web:      www.OpenFOAM.org                      |
|    \\/     M anipulation  |                                                 |
\*---------------------------------------------------------------------------*/
FoamFile
{
    version     2.0;
    format      ascii;
    class       volVectorField;
    location    "0";
    object      U;
}
// * * * * * * * * * * * * * * * * * * * * * * * * * * * * * * * * * * * * * //

dimensions      [0 1 -1 0 0 0 0];

internalField   nonuniform List<vector> 
134648
(
(44.2 -3.85649e-08 0)
(44.2 -3.05718e-07 0)
(44.2 -7.8491e-07 0)
(44.2 -1.30954e-06 0)
(44.2 -1.88283e-06 0)
(44.2 -2.50799e-06 0)
(44.2 -3.18775e-06 0)
(44.2 -3.92449e-06 0)
(44.2 -4.72018e-06 0)
(44.2 -5.57598e-06 0)
(44.2 -6.49203e-06 0)
(44.2 -7.46731e-06 0)
(44.2 -8.49948e-06 0)
(44.2 -9.58458e-06 0)
(44.2 -1.07168e-05 0)
(44.2 -1.18881e-05 0)
(44.2 -1.30879e-05 0)
(44.2 -1.43023e-05 0)
(44.2 -1.55147e-05 0)
(44.2 -1.67045e-05 0)
(44.2 -1.7848e-05 0)
(44.2 -1.89186e-05 0)
(44.2 -1.98867e-05 0)
(44.2 -2.07226e-05 0)
(44.2 -2.13948e-05 0)
(44.2 -2.18752e-05 0)
(44.2 -2.21351e-05 0)
(44.2 -2.21535e-05 0)
(44.2 -2.19096e-05 0)
(44.2 -2.1391e-05 0)
(44.2 -2.05879e-05 0)
(44.2 -1.94923e-05 0)
(44.2 -1.81058e-05 0)
(44.2 -1.64233e-05 0)
(44.2 -1.44338e-05 0)
(44.2 -1.21169e-05 0)
(44.2 -9.44467e-06 0)
(44.2 -6.38599e-06 0)
(44.2 -2.92484e-06 0)
(44.2 7.15064e-07 0)
(44.2 4.09131e-06 0)
(44.2 7.00613e-06 0)
(44.2 9.49929e-06 0)
(44.2 1.16103e-05 0)
(44.2 1.33725e-05 0)
(44.2 1.48148e-05 0)
(44.2 1.59426e-05 0)
(44.2 1.67604e-05 0)
(44.2 1.72744e-05 0)
(44.2 1.75016e-05 0)
(44.2 1.74706e-05 0)
(44.2 1.7222e-05 0)
(44.2 1.6794e-05 0)
(44.2 1.62169e-05 0)
(44.2 1.55222e-05 0)
(44.2 1.47341e-05 0)
(44.2 1.38789e-05 0)
(44.2 1.29773e-05 0)
(44.2 1.20501e-05 0)
(44.2 1.11139e-05 0)
(44.2 1.0184e-05 0)
(44.2 9.27216e-06 0)
(44.2 8.38829e-06 0)
(44.2 7.53955e-06 0)
(44.2 6.73137e-06 0)
(44.2 5.96714e-06 0)
(44.2 5.249e-06 0)
(44.2 4.5776e-06 0)
(44.2 3.95269e-06 0)
(44.2 3.3734e-06 0)
(44.2 2.83821e-06 0)
(44.2 2.34503e-06 0)
(44.2 1.89162e-06 0)
(44.2 1.47573e-06 0)
(44.2 1.09491e-06 0)
(44.2 7.46751e-07 0)
(44.2 4.28624e-07 0)
(44.2 1.38365e-07 0)
(44.2 -7.81045e-08 0)
(44.2 -4.11449e-07 0)
(44.2 -9.45306e-07 0)
(44.2 -1.52676e-06 0)
(44.2 -2.15825e-06 0)
(44.2 -2.84208e-06 0)
(44.2 -3.57998e-06 0)
(44.2 -4.37311e-06 0)
(44.2 -5.2219e-06 0)
(44.2 -6.12619e-06 0)
(44.2 -7.08495e-06 0)
(44.2 -8.09638e-06 0)
(44.2 -9.15769e-06 0)
(44.2 -1.02647e-05 0)
(44.2 -1.14112e-05 0)
(44.2 -1.25888e-05 0)
(44.2 -1.37869e-05 0)
(44.2 -1.49912e-05 0)
(44.2 -1.61845e-05 0)
(44.2 -1.73462e-05 0)
(44.2 -1.84522e-05 0)
(44.2 -1.94769e-05 0)
(44.2 -2.03915e-05 0)
(44.2 -2.11686e-05 0)
(44.2 -2.17785e-05 0)
(44.2 -2.21964e-05 0)
(44.2 -2.23959e-05 0)
(44.2 -2.23586e-05 0)
(44.2 -2.20656e-05 0)
(44.2 -2.15052e-05 0)
(44.2 -2.06691e-05 0)
(44.2 -1.95469e-05 0)
(44.2 -1.8142e-05 0)
(44.2 -1.6451e-05 0)
(44.2 -1.4457e-05 0)
(44.2 -1.21342e-05 0)
(44.2 -9.45551e-06 0)
(44.2 -6.3904e-06 0)
(44.2 -2.92016e-06 0)
(44.2 7.29559e-07 0)
(44.2 4.11234e-06 0)
(44.2 7.03208e-06 0)
(44.2 9.53203e-06 0)
(44.2 1.16536e-05 0)
(44.2 1.34295e-05 0)
(44.2 1.48913e-05 0)
(44.2 1.60448e-05 0)
(44.2 1.68851e-05 0)
(44.2 1.74171e-05 0)
(44.2 1.76656e-05 0)
(44.2 1.76595e-05 0)
(44.2 1.74381e-05 0)
(44.2 1.70382e-05 0)
(44.2 1.64885e-05 0)
(44.2 1.58198e-05 0)
(44.2 1.5055e-05 0)
(44.2 1.42198e-05 0)
(44.2 1.3334e-05 0)
(44.2 1.24181e-05 0)
(44.2 1.14878e-05 0)
(44.2 1.05583e-05 0)
(44.2 9.64105e-06 0)
(44.2 8.74606e-06 0)
(44.2 7.88062e-06 0)
(44.2 7.05044e-06 0)
(44.2 6.25935e-06 0)
(44.2 5.51e-06 0)
(44.2 4.80361e-06 0)
(44.2 4.14043e-06 0)
(44.2 3.52025e-06 0)
(44.2 2.94221e-06 0)
(44.2 2.40477e-06 0)
(44.2 1.90626e-06 0)
(44.2 1.44468e-06 0)
(44.2 1.01822e-06 0)
(44.2 6.24899e-07 0)
(44.2 2.62418e-07 0)
(44.2 4.43291e-08 0)
(44.2 -8.93355e-08 0)
(44.2 -4.56083e-07 0)
(44.2 -1.0352e-06 0)
(44.2 -1.66388e-06 0)
(44.2 -2.34374e-06 0)
(44.2 -3.07624e-06 0)
(44.2 -3.86228e-06 0)
(44.2 -4.70181e-06 0)
(44.2 -5.59435e-06 0)
(44.2 -6.53885e-06 0)
(44.2 -7.53355e-06 0)
(44.2 -8.57595e-06 0)
(44.2 -9.6628e-06 0)
(44.2 -1.07893e-05 0)
(44.2 -1.19489e-05 0)
(44.2 -1.31326e-05 0)
(44.2 -1.4329e-05 0)
(44.2 -1.55235e-05 0)
(44.2 -1.66985e-05 0)
(44.2 -1.78338e-05 0)
(44.2 -1.8906e-05 0)
(44.2 -1.98907e-05 0)
(44.2 -2.07607e-05 0)
(44.2 -2.14907e-05 0)
(44.2 -2.20524e-05 0)
(44.2 -2.24234e-05 0)
(44.2 -2.25787e-05 0)
(44.2 -2.25009e-05 0)
(44.2 -2.21726e-05 0)
(44.2 -2.15807e-05 0)
(44.2 -2.07194e-05 0)
(44.2 -1.95803e-05 0)
(44.2 -1.81639e-05 0)
(44.2 -1.64653e-05 0)
(44.2 -1.44671e-05 0)
(44.2 -1.21408e-05 0)
(44.2 -9.45844e-06 0)
(44.2 -6.38917e-06 0)
(44.2 -2.91398e-06 0)
(44.2 7.4092e-07 0)
(44.2 4.12851e-06 0)
(44.2 7.05278e-06 0)
(44.2 9.55788e-06 0)
(44.2 1.1688e-05 0)
(44.2 1.34741e-05 0)
(44.2 1.49461e-05 0)
(44.2 1.61105e-05 0)
(44.2 1.69657e-05 0)
(44.2 1.75165e-05 0)
(44.2 1.77864e-05 0)
(44.2 1.7804e-05 0)
(44.2 1.76068e-05 0)
(44.2 1.72304e-05 0)
(44.2 1.6702e-05 0)
(44.2 1.60515e-05 0)
(44.2 1.53009e-05 0)
(44.2 1.44755e-05 0)
(44.2 1.35945e-05 0)
(44.2 1.26785e-05 0)
(44.2 1.17438e-05 0)
(44.2 1.08058e-05 0)
(44.2 9.87675e-06 0)
(44.2 8.96738e-06 0)
(44.2 8.08558e-06 0)
(44.2 7.2378e-06 0)
(44.2 6.42851e-06 0)
(44.2 5.6608e-06 0)
(44.2 4.93636e-06 0)
(44.2 4.25577e-06 0)
(44.2 3.6189e-06 0)
(44.2 3.02507e-06 0)
(44.2 2.47304e-06 0)
(44.2 1.96112e-06 0)
(44.2 1.48761e-06 0)
(44.2 1.05043e-06 0)
(44.2 6.47247e-07 0)
(44.2 2.76191e-07 0)
(44.2 4.92466e-08 0)
(44.2 -1.03948e-07 0)
(44.2 -4.86477e-07 0)
(44.2 -1.06803e-06 0)
(44.2 -1.69972e-06 0)
(44.2 -2.38361e-06 0)
(44.2 -3.12125e-06 0)
(44.2 -3.91355e-06 0)
(44.2 -4.7608e-06 0)
(44.2 -5.66281e-06 0)
(44.2 -6.61846e-06 0)
(44.2 -7.62613e-06 0)
(44.2 -8.68328e-06 0)
(44.2 -9.78624e-06 0)
(44.2 -1.09297e-05 0)
(44.2 -1.21067e-05 0)
(44.2 -1.33074e-05 0)
(44.2 -1.45196e-05 0)
(44.2 -1.57278e-05 0)
(44.2 -1.69133e-05 0)
(44.2 -1.8055e-05 0)
(44.2 -1.91286e-05 0)
(44.2 -2.01095e-05 0)
(44.2 -2.09702e-05 0)
(44.2 -2.16856e-05 0)
(44.2 -2.22286e-05 0)
(44.2 -2.25776e-05 0)
(44.2 -2.27092e-05 0)
(44.2 -2.26072e-05 0)
(44.2 -2.22555e-05 0)
(44.2 -2.16416e-05 0)
(44.2 -2.07609e-05 0)
(44.2 -1.96075e-05 0)
(44.2 -1.81819e-05 0)
(44.2 -1.64775e-05 0)
(44.2 -1.44754e-05 0)
(44.2 -1.21463e-05 0)
(44.2 -9.46064e-06 0)
(44.2 -6.38728e-06 0)
(44.2 -2.90687e-06 0)
(44.2 7.54124e-07 0)
(44.2 4.14772e-06 0)
(44.2 7.07706e-06 0)
(44.2 9.58632e-06 0)
(44.2 1.17212e-05 0)
(44.2 1.35142e-05 0)
(44.2 1.49931e-05 0)
(44.2 1.61666e-05 0)
(44.2 1.70346e-05 0)
(44.2 1.76008e-05 0)
(44.2 1.78879e-05 0)
(44.2 1.79228e-05 0)
(44.2 1.77424e-05 0)
(44.2 1.73815e-05 0)
(44.2 1.68669e-05 0)
(44.2 1.62279e-05 0)
(44.2 1.54864e-05 0)
(44.2 1.46676e-05 0)
(44.2 1.37906e-05 0)
(44.2 1.28761e-05 0)
(44.2 1.19402e-05 0)
(44.2 1.09987e-05 0)
(44.2 1.00638e-05 0)
(44.2 9.14649e-06 0)
(44.2 8.25507e-06 0)
(44.2 7.39618e-06 0)
(44.2 6.57462e-06 0)
(44.2 5.79378e-06 0)
(44.2 5.05561e-06 0)
(44.2 4.36123e-06 0)
(44.2 3.71076e-06 0)
(44.2 3.10362e-06 0)
(44.2 2.53862e-06 0)
(44.2 2.01431e-06 0)
(44.2 1.52916e-06 0)
(44.2 1.08092e-06 0)
(44.2 6.67583e-07 0)
(44.2 2.87324e-07 0)
(44.2 5.25726e-08 0)
(44.2 -1.0123e-07 0)
(44.2 -4.88177e-07 0)
(44.2 -1.08459e-06 0)
(44.2 -1.73222e-06 0)
(44.2 -2.43279e-06 0)
(44.2 -3.18753e-06 0)
(44.2 -3.99726e-06 0)
(44.2 -4.86185e-06 0)
(44.2 -5.78065e-06 0)
(44.2 -6.75232e-06 0)
(44.2 -7.77477e-06 0)
(44.2 -8.84492e-06 0)
(44.2 -9.95882e-06 0)
(44.2 -1.1111e-05 0)
(44.2 -1.22942e-05 0)
(44.2 -1.34985e-05 0)
(44.2 -1.47118e-05 0)
(44.2 -1.59185e-05 0)
(44.2 -1.71002e-05 0)
(44.2 -1.8236e-05 0)
(44.2 -1.93021e-05 0)
(44.2 -2.02736e-05 0)
(44.2 -2.11235e-05 0)
(44.2 -2.18268e-05 0)
(44.2 -2.23563e-05 0)
(44.2 -2.26905e-05 0)
(44.2 -2.28065e-05 0)
(44.2 -2.26878e-05 0)
(44.2 -2.23193e-05 0)
(44.2 -2.16896e-05 0)
(44.2 -2.07947e-05 0)
(44.2 -1.96307e-05 0)
(44.2 -1.81976e-05 0)
(44.2 -1.64881e-05 0)
(44.2 -1.44825e-05 0)
(44.2 -1.21505e-05 0)
(44.2 -9.46182e-06 0)
(44.2 -6.38451e-06 0)
(44.2 -2.8988e-06 0)
(44.2 7.68603e-07 0)
(44.2 4.16844e-06 0)
(44.2 7.10274e-06 0)
(44.2 9.61546e-06 0)
(44.2 1.17538e-05 0)
(44.2 1.35518e-05 0)
(44.2 1.50371e-05 0)
(44.2 1.62192e-05 0)
(44.2 1.70984e-05 0)
(44.2 1.7677e-05 0)
(44.2 1.79768e-05 0)
(44.2 1.80239e-05 0)
(44.2 1.78542e-05 0)
(44.2 1.75017e-05 0)
(44.2 1.69927e-05 0)
(44.2 1.63562e-05 0)
(44.2 1.56138e-05 0)
(44.2 1.47909e-05 0)
(44.2 1.39069e-05 0)
(44.2 1.29832e-05 0)
(44.2 1.20365e-05 0)
(44.2 1.10833e-05 0)
(44.2 1.01365e-05 0)
(44.2 9.20768e-06 0)
(44.2 8.30555e-06 0)
(44.2 7.43715e-06 0)
(44.2 6.60736e-06 0)
(44.2 5.8197e-06 0)
(44.2 5.07626e-06 0)
(44.2 4.37781e-06 0)
(44.2 3.72428e-06 0)
(44.2 3.11515e-06 0)
(44.2 2.54911e-06 0)
(44.2 2.02435e-06 0)
(44.2 1.53905e-06 0)
(44.2 1.09116e-06 0)
(44.2 6.78347e-07 0)
(44.2 2.98428e-07 0)
(44.2 5.82253e-08 0)
(44.2 -1.09308e-07 0)
(44.2 -5.00318e-07 0)
(44.2 -1.08854e-06 0)
(44.2 -1.72751e-06 0)
(44.2 -2.41932e-06 0)
(44.2 -3.16582e-06 0)
(44.2 -3.96806e-06 0)
(44.2 -4.82634e-06 0)
(44.2 -5.74054e-06 0)
(44.2 -6.70948e-06 0)
(44.2 -7.73132e-06 0)
(44.2 -8.80363e-06 0)
(44.2 -9.9225e-06 0)
(44.2 -1.10823e-05 0)
(44.2 -1.22756e-05 0)
(44.2 -1.34922e-05 0)
(44.2 -1.47192e-05 0)
(44.2 -1.59406e-05 0)
(44.2 -1.7137e-05 0)
(44.2 -1.82864e-05 0)
(44.2 -1.93642e-05 0)
(44.2 -2.03449e-05 0)
(44.2 -2.12007e-05 0)
(44.2 -2.19065e-05 0)
(44.2 -2.24352e-05 0)
(44.2 -2.27654e-05 0)
(44.2 -2.28747e-05 0)
(44.2 -2.27474e-05 0)
(44.2 -2.23687e-05 0)
(44.2 -2.17278e-05 0)
(44.2 -2.08227e-05 0)
(44.2 -1.965e-05 0)
(44.2 -1.82107e-05 0)
(44.2 -1.64968e-05 0)
(44.2 -1.44881e-05 0)
(44.2 -1.21536e-05 0)
(44.2 -9.46211e-06 0)
(44.2 -6.38109e-06 0)
(44.2 -2.89026e-06 0)
(44.2 7.83422e-07 0)
(44.2 4.18926e-06 0)
(44.2 7.12817e-06 0)
(44.2 9.644e-06 0)
(44.2 1.17851e-05 0)
(44.2 1.35873e-05 0)
(44.2 1.50786e-05 0)
(44.2 1.62687e-05 0)
(44.2 1.71573e-05 0)
(44.2 1.77461e-05 0)
(44.2 1.80564e-05 0)
(44.2 1.81128e-05 0)
(44.2 1.79513e-05 0)
(44.2 1.76057e-05 0)
(44.2 1.71022e-05 0)
(44.2 1.64698e-05 0)
(44.2 1.57305e-05 0)
(44.2 1.49096e-05 0)
(44.2 1.40268e-05 0)
(44.2 1.31034e-05 0)
(44.2 1.21561e-05 0)
(44.2 1.12014e-05 0)
(44.2 1.02521e-05 0)
(44.2 9.31954e-06 0)
(44.2 8.41249e-06 0)
(44.2 7.53809e-06 0)
(44.2 6.70133e-06 0)
(44.2 5.90582e-06 0)
(44.2 5.15378e-06 0)
(44.2 4.44636e-06 0)
(44.2 3.78364e-06 0)
(44.2 3.16517e-06 0)
(44.2 2.5897e-06 0)
(44.2 2.05571e-06 0)
(44.2 1.56149e-06 0)
(44.2 1.10503e-06 0)
(44.2 6.8421e-07 0)
(44.2 2.96812e-07 0)
(44.2 5.56178e-08 0)
(44.2 -1.02114e-07 0)
(44.2 -4.91273e-07 0)
(44.2 -1.09025e-06 0)
(44.2 -1.74051e-06 0)
(44.2 -2.44444e-06 0)
(44.2 -3.20325e-06 0)
(44.2 -4.01755e-06 0)
(44.2 -4.88744e-06 0)
(44.2 -5.81226e-06 0)
(44.2 -6.79079e-06 0)
(44.2 -7.82103e-06 0)
(44.2 -8.89998e-06 0)
(44.2 -1.00236e-05 0)
(44.2 -1.11863e-05 0)
(44.2 -1.23806e-05 0)
(44.2 -1.35966e-05 0)
(44.2 -1.48214e-05 0)
(44.2 -1.60393e-05 0)
(44.2 -1.72315e-05 0)
(44.2 -1.83764e-05 0)
(44.2 -1.94494e-05 0)
(44.2 -2.04254e-05 0)
(44.2 -2.12766e-05 0)
(44.2 -2.19777e-05 0)
(44.2 -2.25015e-05 0)
(44.2 -2.28264e-05 0)
(44.2 -2.29297e-05 0)
(44.2 -2.27953e-05 0)
(44.2 -2.24089e-05 0)
(44.2 -2.176e-05 0)
(44.2 -2.0847e-05 0)
(44.2 -1.96678e-05 0)
(44.2 -1.8223e-05 0)
(44.2 -1.65049e-05 0)
(44.2 -1.4493e-05 0)
(44.2 -1.21559e-05 0)
(44.2 -9.46167e-06 0)
(44.2 -6.37722e-06 0)
(44.2 -2.88173e-06 0)
(44.2 7.97576e-07 0)
(44.2 4.20885e-06 0)
(44.2 7.15217e-06 0)
(44.2 9.67137e-06 0)
(44.2 1.18157e-05 0)
(44.2 1.36223e-05 0)
(44.2 1.51196e-05 0)
(44.2 1.63168e-05 0)
(44.2 1.72133e-05 0)
(44.2 1.78101e-05 0)
(44.2 1.81273e-05 0)
(44.2 1.81898e-05 0)
(44.2 1.80328e-05 0)
(44.2 1.76896e-05 0)
(44.2 1.71863e-05 0)
(44.2 1.65519e-05 0)
(44.2 1.58081e-05 0)
(44.2 1.49808e-05 0)
(44.2 1.409e-05 0)
(44.2 1.31574e-05 0)
(44.2 1.22003e-05 0)
(44.2 1.12357e-05 0)
(44.2 1.02769e-05 0)
(44.2 9.33585e-06 0)
(44.2 8.42153e-06 0)
(44.2 7.54123e-06 0)
(44.2 6.70009e-06 0)
(44.2 5.90159e-06 0)
(44.2 5.14776e-06 0)
(44.2 4.43966e-06 0)
(44.2 3.77733e-06 0)
(44.2 3.15994e-06 0)
(44.2 2.58612e-06 0)
(44.2 2.05422e-06 0)
(44.2 1.56223e-06 0)
(44.2 1.10826e-06 0)
(44.2 6.90109e-07 0)
(44.2 3.05416e-07 0)
(44.2 6.06097e-08 0)
(44.2 -1.10041e-07 0)
(44.2 -5.02307e-07 0)
(44.2 -1.09167e-06 0)
(44.2 -1.73239e-06 0)
(44.2 -2.42637e-06 0)
(44.2 -3.17514e-06 0)
(44.2 -3.98e-06 0)
(44.2 -4.84131e-06 0)
(44.2 -5.75885e-06 0)
(44.2 -6.73174e-06 0)
(44.2 -7.75835e-06 0)
(44.2 -8.83598e-06 0)
(44.2 -9.96091e-06 0)
(44.2 -1.11275e-05 0)
(44.2 -1.23281e-05 0)
(44.2 -1.35527e-05 0)
(44.2 -1.47879e-05 0)
(44.2 -1.60177e-05 0)
(44.2 -1.72221e-05 0)
(44.2 -1.83792e-05 0)
(44.2 -1.94636e-05 0)
(44.2 -2.04494e-05 0)
(44.2 -2.13084e-05 0)
(44.2 -2.20151e-05 0)
(44.2 -2.2542e-05 0)
(44.2 -2.28678e-05 0)
(44.2 -2.29699e-05 0)
(44.2 -2.28328e-05 0)
(44.2 -2.24421e-05 0)
(44.2 -2.17876e-05 0)
(44.2 -2.08688e-05 0)
(44.2 -1.96837e-05 0)
(44.2 -1.8234e-05 0)
(44.2 -1.65122e-05 0)
(44.2 -1.44974e-05 0)
(44.2 -1.21579e-05 0)
(44.2 -9.46117e-06 0)
(44.2 -6.3735e-06 0)
(44.2 -2.87368e-06 0)
(44.2 8.1089e-07 0)
(44.2 4.22726e-06 0)
(44.2 7.17483e-06 0)
(44.2 9.69754e-06 0)
(44.2 1.18452e-05 0)
(44.2 1.36561e-05 0)
(44.2 1.51585e-05 0)
(44.2 1.63618e-05 0)
(44.2 1.7265e-05 0)
(44.2 1.78682e-05 0)
(44.2 1.81917e-05 0)
(44.2 1.82591e-05 0)
(44.2 1.81062e-05 0)
(44.2 1.77661e-05 0)
(44.2 1.72652e-05 0)
(44.2 1.66327e-05 0)
(44.2 1.58906e-05 0)
(44.2 1.50649e-05 0)
(44.2 1.41754e-05 0)
(44.2 1.3244e-05 0)
(44.2 1.22878e-05 0)
(44.2 1.13234e-05 0)
(44.2 1.03641e-05 0)
(44.2 9.42163e-06 0)
(44.2 8.50481e-06 0)
(44.2 7.62086e-06 0)
(44.2 6.7749e-06 0)
(44.2 5.97069e-06 0)
(44.2 5.21037e-06 0)
(44.2 4.49519e-06 0)
(44.2 3.82526e-06 0)
(44.2 3.19993e-06 0)
(44.2 2.61826e-06 0)
(44.2 2.07868e-06 0)
(44.2 1.57914e-06 0)
(44.2 1.11778e-06 0)
(44.2 6.92654e-07 0)
(44.2 3.01334e-07 0)
(44.2 5.69009e-08 0)
(44.2 -1.02664e-07 0)
(44.2 -4.93376e-07 0)
(44.2 -1.09458e-06 0)
(44.2 -1.74739e-06 0)
(44.2 -2.45403e-06 0)
(44.2 -3.21573e-06 0)
(44.2 -4.0332e-06 0)
(44.2 -4.90658e-06 0)
(44.2 -5.83517e-06 0)
(44.2 -6.81766e-06 0)
(44.2 -7.8521e-06 0)
(44.2 -8.93542e-06 0)
(44.2 -1.00636e-05 0)
(44.2 -1.1231e-05 0)
(44.2 -1.24302e-05 0)
(44.2 -1.36511e-05 0)
(44.2 -1.4881e-05 0)
(44.2 -1.61039e-05 0)
(44.2 -1.73009e-05 0)
(44.2 -1.84502e-05 0)
(44.2 -1.95271e-05 0)
(44.2 -2.05062e-05 0)
(44.2 -2.13595e-05 0)
(44.2 -2.20614e-05 0)
(44.2 -2.25845e-05 0)
(44.2 -2.29069e-05 0)
(44.2 -2.30059e-05 0)
(44.2 -2.28654e-05 0)
(44.2 -2.2471e-05 0)
(44.2 -2.18125e-05 0)
(44.2 -2.08891e-05 0)
(44.2 -1.96998e-05 0)
(44.2 -1.82458e-05 0)
(44.2 -1.65201e-05 0)
(44.2 -1.45023e-05 0)
(44.2 -1.21601e-05 0)
(44.2 -9.46083e-06 0)
(44.2 -6.3701e-06 0)
(44.2 -2.86634e-06 0)
(44.2 8.22893e-07 0)
(44.2 4.24391e-06 0)
(44.2 7.19565e-06 0)
(44.2 9.72211e-06 0)
(44.2 1.18737e-05 0)
(44.2 1.36888e-05 0)
(44.2 1.51965e-05 0)
(44.2 1.64052e-05 0)
(44.2 1.73136e-05 0)
(44.2 1.79215e-05 0)
(44.2 1.82485e-05 0)
(44.2 1.83188e-05 0)
(44.2 1.81672e-05 0)
(44.2 1.78271e-05 0)
(44.2 1.73244e-05 0)
(44.2 1.66884e-05 0)
(44.2 1.59412e-05 0)
(44.2 1.51088e-05 0)
(44.2 1.42116e-05 0)
(44.2 1.32718e-05 0)
(44.2 1.23069e-05 0)
(44.2 1.1334e-05 0)
(44.2 1.03669e-05 0)
(44.2 9.41762e-06 0)
(44.2 8.49518e-06 0)
(44.2 7.60702e-06 0)
(44.2 6.75835e-06 0)
(44.2 5.95285e-06 0)
(44.2 5.19252e-06 0)
(44.2 4.47826e-06 0)
(44.2 3.81e-06 0)
(44.2 3.18712e-06 0)
(44.2 2.60842e-06 0)
(44.2 2.0721e-06 0)
(44.2 1.5761e-06 0)
(44.2 1.11836e-06 0)
(44.2 6.96879e-07 0)
(44.2 3.09037e-07 0)
(44.2 6.15651e-08 0)
(44.2 -1.10721e-07 0)
(44.2 -5.04419e-07 0)
(44.2 -1.09525e-06 0)
(44.2 -1.73745e-06 0)
(44.2 -2.43317e-06 0)
(44.2 -3.18397e-06 0)
(44.2 -3.99102e-06 0)
(44.2 -4.85473e-06 0)
(44.2 -5.77512e-06 0)
(44.2 -6.75112e-06 0)
(44.2 -7.78095e-06 0)
(44.2 -8.86207e-06 0)
(44.2 -9.99062e-06 0)
(44.2 -1.1161e-05 0)
(44.2 -1.23657e-05 0)
(44.2 -1.35943e-05 0)
(44.2 -1.48337e-05 0)
(44.2 -1.60675e-05 0)
(44.2 -1.72759e-05 0)
(44.2 -1.84367e-05 0)
(44.2 -1.95243e-05 0)
(44.2 -2.05128e-05 0)
(44.2 -2.13738e-05 0)
(44.2 -2.20815e-05 0)
(44.2 -2.26086e-05 0)
(44.2 -2.29333e-05 0)
(44.2 -2.30331e-05 0)
(44.2 -2.28923e-05 0)
(44.2 -2.24963e-05 0)
(44.2 -2.1835e-05 0)
(44.2 -2.09083e-05 0)
(44.2 -1.97147e-05 0)
(44.2 -1.82569e-05 0)
(44.2 -1.65281e-05 0)
(44.2 -1.45074e-05 0)
(44.2 -1.2163e-05 0)
(44.2 -9.46123e-06 0)
(44.2 -6.36757e-06 0)
(44.2 -2.86004e-06 0)
(44.2 8.33692e-07 0)
(44.2 4.25919e-06 0)
(44.2 7.21496e-06 0)
(44.2 9.74513e-06 0)
(44.2 1.19002e-05 0)
(44.2 1.37194e-05 0)
(44.2 1.52311e-05 0)
(44.2 1.64443e-05 0)
(44.2 1.73571e-05 0)
(44.2 1.79689e-05 0)
(44.2 1.82996e-05 0)
(44.2 1.83725e-05 0)
(44.2 1.8223e-05 0)
(44.2 1.78843e-05 0)
(44.2 1.73829e-05 0)
(44.2 1.67482e-05 0)
(44.2 1.60025e-05 0)
(44.2 1.5172e-05 0)
(44.2 1.42769e-05 0)
(44.2 1.33391e-05 0)
(44.2 1.23762e-05 0)
(44.2 1.14049e-05 0)
(44.2 1.04387e-05 0)
(44.2 9.4893e-06 0)
(44.2 8.56568e-06 0)
(44.2 7.67522e-06 0)
(44.2 6.82307e-06 0)
(44.2 6.01298e-06 0)
(44.2 5.24727e-06 0)
(44.2 4.52697e-06 0)
(44.2 3.85221e-06 0)
(44.2 3.22251e-06 0)
(44.2 2.63663e-06 0)
(44.2 2.0931e-06 0)
(44.2 1.59012e-06 0)
(44.2 1.12571e-06 0)
(44.2 6.97671e-07 0)
(44.2 3.03621e-07 0)
(44.2 5.74158e-08 0)
(44.2 -1.03656e-07 0)
(44.2 -4.96064e-07 0)
(44.2 -1.09873e-06 0)
(44.2 -1.75314e-06 0)
(44.2 -2.46153e-06 0)
(44.2 -3.22513e-06 0)
(44.2 -4.04446e-06 0)
(44.2 -4.91962e-06 0)
(44.2 -5.85022e-06 0)
(44.2 -6.83491e-06 0)
(44.2 -7.87163e-06 0)
(44.2 -8.95736e-06 0)
(44.2 -1.00881e-05 0)
(44.2 -1.12582e-05 0)
(44.2 -1.24601e-05 0)
(44.2 -1.36838e-05 0)
(44.2 -1.49165e-05 0)
(44.2 -1.61423e-05 0)
(44.2 -1.73422e-05 0)
(44.2 -1.84943e-05 0)
(44.2 -1.9574e-05 0)
(44.2 -2.05557e-05 0)
(44.2 -2.14112e-05 0)
(44.2 -2.21149e-05 0)
(44.2 -2.26391e-05 0)
(44.2 -2.29619e-05 0)
(44.2 -2.30602e-05 0)
(44.2 -2.29177e-05 0)
(44.2 -2.252e-05 0)
(44.2 -2.18567e-05 0)
(44.2 -2.09271e-05 0)
(44.2 -1.97307e-05 0)
(44.2 -1.82695e-05 0)
(44.2 -1.65372e-05 0)
(44.2 -1.45138e-05 0)
(44.2 -1.21666e-05 0)
(44.2 -9.46234e-06 0)
(44.2 -6.36586e-06 0)
(44.2 -2.85488e-06 0)
(44.2 8.42852e-07 0)
(44.2 4.27246e-06 0)
(44.2 7.23215e-06 0)
(44.2 9.76607e-06 0)
(44.2 1.19251e-05 0)
(44.2 1.37481e-05 0)
(44.2 1.52642e-05 0)
(44.2 1.6481e-05 0)
(44.2 1.73971e-05 0)
(44.2 1.80117e-05 0)
(44.2 1.83439e-05 0)
(44.2 1.84178e-05 0)
(44.2 1.82683e-05 0)
(44.2 1.79284e-05 0)
(44.2 1.74246e-05 0)
(44.2 1.67861e-05 0)
(44.2 1.60353e-05 0)
(44.2 1.51985e-05 0)
(44.2 1.42962e-05 0)
(44.2 1.33509e-05 0)
(44.2 1.23801e-05 0)
(44.2 1.14014e-05 0)
(44.2 1.04284e-05 0)
(44.2 9.47333e-06 0)
(44.2 8.54531e-06 0)
(44.2 7.65182e-06 0)
(44.2 6.79807e-06 0)
(44.2 5.98772e-06 0)
(44.2 5.22285e-06 0)
(44.2 4.50431e-06 0)
(44.2 3.83215e-06 0)
(44.2 3.20568e-06 0)
(44.2 2.62366e-06 0)
(44.2 2.08426e-06 0)
(44.2 1.58544e-06 0)
(44.2 1.12513e-06 0)
(44.2 7.01028e-07 0)
(44.2 3.10913e-07 0)
(44.2 6.20414e-08 0)
(44.2 -1.11528e-07 0)
(44.2 -5.06272e-07 0)
(44.2 -1.09792e-06 0)
(44.2 -1.74095e-06 0)
(44.2 -2.43746e-06 0)
(44.2 -3.18923e-06 0)
(44.2 -3.99732e-06 0)
(44.2 -4.86228e-06 0)
(44.2 -5.78386e-06 0)
(44.2 -6.76111e-06 0)
(44.2 -7.79253e-06 0)
(44.2 -8.87548e-06 0)
(44.2 -1.0006e-05 0)
(44.2 -1.11785e-05 0)
(44.2 -1.23855e-05 0)
(44.2 -1.36166e-05 0)
(44.2 -1.48586e-05 0)
(44.2 -1.60953e-05 0)
(44.2 -1.73066e-05 0)
(44.2 -1.84704e-05 0)
(44.2 -1.9561e-05 0)
(44.2 -2.05526e-05 0)
(44.2 -2.14164e-05 0)
(44.2 -2.21268e-05 0)
(44.2 -2.26559e-05 0)
(44.2 -2.29821e-05 0)
(44.2 -2.30823e-05 0)
(44.2 -2.29407e-05 0)
(44.2 -2.25426e-05 0)
(44.2 -2.18776e-05 0)
(44.2 -2.09458e-05 0)
(44.2 -1.9746e-05 0)
(44.2 -1.82817e-05 0)
(44.2 -1.65466e-05 0)
(44.2 -1.45205e-05 0)
(44.2 -1.21712e-05 0)
(44.2 -9.46463e-06 0)
(44.2 -6.36544e-06 0)
(44.2 -2.85107e-06 0)
(44.2 8.50628e-07 0)
(44.2 4.28422e-06 0)
(44.2 7.24762e-06 0)
(44.2 9.78505e-06 0)
(44.2 1.19473e-05 0)
(44.2 1.37737e-05 0)
(44.2 1.52927e-05 0)
(44.2 1.65127e-05 0)
(44.2 1.74317e-05 0)
(44.2 1.80487e-05 0)
(44.2 1.83833e-05 0)
(44.2 1.84587e-05 0)
(44.2 1.83102e-05 0)
(44.2 1.79713e-05 0)
(44.2 1.74686e-05 0)
(44.2 1.68314e-05 0)
(44.2 1.60825e-05 0)
(44.2 1.5248e-05 0)
(44.2 1.43485e-05 0)
(44.2 1.3406e-05 0)
(44.2 1.24381e-05 0)
(44.2 1.14619e-05 0)
(44.2 1.04907e-05 0)
(44.2 9.53638e-06 0)
(44.2 8.60812e-06 0)
(44.2 7.71317e-06 0)
(44.2 6.85677e-06 0)
(44.2 6.04271e-06 0)
(44.2 5.27316e-06 0)
(44.2 4.54931e-06 0)
(44.2 3.87132e-06 0)
(44.2 3.23849e-06 0)
(44.2 2.64972e-06 0)
(44.2 2.1036e-06 0)
(44.2 1.59824e-06 0)
(44.2 1.13144e-06 0)
(44.2 7.01225e-07 0)
(44.2 3.05347e-07 0)
(44.2 5.78205e-08 0)
(44.2 -1.04096e-07 0)
(44.2 -4.97166e-07 0)
(44.2 -1.10027e-06 0)
(44.2 -1.75508e-06 0)
(44.2 -2.46376e-06 0)
(44.2 -3.22765e-06 0)
(44.2 -4.04751e-06 0)
(44.2 -4.92359e-06 0)
(44.2 -5.85517e-06 0)
(44.2 -6.84088e-06 0)
(44.2 -7.87886e-06 0)
(44.2 -8.96604e-06 0)
(44.2 -1.00984e-05 0)
(44.2 -1.12704e-05 0)
(44.2 -1.24745e-05 0)
(44.2 -1.37006e-05 0)
(44.2 -1.4936e-05 0)
(44.2 -1.61649e-05 0)
(44.2 -1.73679e-05 0)
(44.2 -1.85235e-05 0)
(44.2 -1.96067e-05 0)
(44.2 -2.05919e-05 0)
(44.2 -2.14508e-05 0)
(44.2 -2.21576e-05 0)
(44.2 -2.26843e-05 0)
(44.2 -2.30089e-05 0)
(44.2 -2.3108e-05 0)
(44.2 -2.29652e-05 0)
(44.2 -2.25659e-05 0)
(44.2 -2.18994e-05 0)
(44.2 -2.09652e-05 0)
(44.2 -1.97631e-05 0)
(44.2 -1.82958e-05 0)
(44.2 -1.65575e-05 0)
(44.2 -1.45287e-05 0)
(44.2 -1.21768e-05 0)
(44.2 -9.46786e-06 0)
(44.2 -6.36607e-06 0)
(44.2 -2.84865e-06 0)
(44.2 8.56523e-07 0)
(44.2 4.29372e-06 0)
(44.2 7.26067e-06 0)
(44.2 9.80153e-06 0)
(44.2 1.19673e-05 0)
(44.2 1.3797e-05 0)
(44.2 1.53193e-05 0)
(44.2 1.6542e-05 0)
(44.2 1.7463e-05 0)
(44.2 1.80815e-05 0)
(44.2 1.84165e-05 0)
(44.2 1.84921e-05 0)
(44.2 1.83431e-05 0)
(44.2 1.80027e-05 0)
(44.2 1.74974e-05 0)
(44.2 1.68566e-05 0)
(44.2 1.61028e-05 0)
(44.2 1.52625e-05 0)
(44.2 1.43564e-05 0)
(44.2 1.34069e-05 0)
(44.2 1.24319e-05 0)
(44.2 1.14489e-05 0)
(44.2 1.04717e-05 0)
(44.2 9.51257e-06 0)
(44.2 8.58058e-06 0)
(44.2 7.68326e-06 0)
(44.2 6.82591e-06 0)
(44.2 6.01215e-06 0)
(44.2 5.24406e-06 0)
(44.2 4.52258e-06 0)
(44.2 3.84767e-06 0)
(44.2 3.21871e-06 0)
(44.2 2.63433e-06 0)
(44.2 2.0927e-06 0)
(44.2 1.59186e-06 0)
(44.2 1.12979e-06 0)
(44.2 7.04174e-07 0)
(44.2 3.12616e-07 0)
(44.2 6.25563e-08 0)
(44.2 -1.11896e-07 0)
(44.2 -5.07279e-07 0)
(44.2 -1.09928e-06 0)
(44.2 -1.74271e-06 0)
(44.2 -2.43986e-06 0)
(44.2 -3.19227e-06 0)
(44.2 -4.00101e-06 0)
(44.2 -4.86669e-06 0)
(44.2 -5.78926e-06 0)
(44.2 -6.76776e-06 0)
(44.2 -7.80057e-06 0)
(44.2 -8.88502e-06 0)
(44.2 -1.00174e-05 0)
(44.2 -1.11922e-05 0)
(44.2 -1.24016e-05 0)
(44.2 -1.36354e-05 0)
(44.2 -1.48806e-05 0)
(44.2 -1.61205e-05 0)
(44.2 -1.73353e-05 0)
(44.2 -1.85027e-05 0)
(44.2 -1.9597e-05 0)
(44.2 -2.05921e-05 0)
(44.2 -2.14592e-05 0)
(44.2 -2.21724e-05 0)
(44.2 -2.27037e-05 0)
(44.2 -2.30313e-05 0)
(44.2 -2.31319e-05 0)
(44.2 -2.29897e-05 0)
(44.2 -2.25898e-05 0)
(44.2 -2.19214e-05 0)
(44.2 -2.09851e-05 0)
(44.2 -1.97796e-05 0)
(44.2 -1.83093e-05 0)
(44.2 -1.65686e-05 0)
(44.2 -1.45374e-05 0)
(44.2 -1.21835e-05 0)
(44.2 -9.47245e-06 0)
(44.2 -6.3682e-06 0)
(44.2 -2.84775e-06 0)
(44.2 8.60912e-07 0)
(44.2 4.30162e-06 0)
(44.2 7.27184e-06 0)
(44.2 9.81575e-06 0)
(44.2 1.19842e-05 0)
(44.2 1.38166e-05 0)
(44.2 1.53409e-05 0)
(44.2 1.65657e-05 0)
(44.2 1.74888e-05 0)
(44.2 1.81088e-05 0)
(44.2 1.84456e-05 0)
(44.2 1.85222e-05 0)
(44.2 1.8374e-05 0)
(44.2 1.80345e-05 0)
(44.2 1.75304e-05 0)
(44.2 1.68912e-05 0)
(44.2 1.61397e-05 0)
(44.2 1.53022e-05 0)
(44.2 1.43995e-05 0)
(44.2 1.34536e-05 0)
(44.2 1.24822e-05 0)
(44.2 1.15023e-05 0)
(44.2 1.05276e-05 0)
(44.2 9.56985e-06 0)
(44.2 8.63832e-06 0)
(44.2 7.74024e-06 0)
(44.2 6.88081e-06 0)
(44.2 6.06385e-06 0)
(44.2 5.29157e-06 0)
(44.2 4.56515e-06 0)
(44.2 3.88481e-06 0)
(44.2 3.24994e-06 0)
(44.2 2.65936e-06 0)
(44.2 2.11147e-06 0)
(44.2 1.60439e-06 0)
(44.2 1.13598e-06 0)
(44.2 7.04056e-07 0)
(44.2 3.06526e-07 0)
(44.2 5.80408e-08 0)
(44.2 -1.03345e-07 0)
(44.2 -4.96129e-07 0)
(44.2 -1.10054e-06 0)
(44.2 -1.75706e-06 0)
(44.2 -2.46756e-06 0)
(44.2 -3.23332e-06 0)
(44.2 -4.05528e-06 0)
(44.2 -4.93355e-06 0)
(44.2 -5.86745e-06 0)
(44.2 -6.85565e-06 0)
(44.2 -7.89615e-06 0)
(44.2 -8.98607e-06 0)
(44.2 -1.01213e-05 0)
(44.2 -1.12963e-05 0)
(44.2 -1.25034e-05 0)
(44.2 -1.37328e-05 0)
(44.2 -1.49714e-05 0)
(44.2 -1.62035e-05 0)
(44.2 -1.74097e-05 0)
(44.2 -1.85683e-05 0)
(44.2 -1.96542e-05 0)
(44.2 -2.06418e-05 0)
(44.2 -2.15026e-05 0)
(44.2 -2.22109e-05 0)
(44.2 -2.27383e-05 0)
(44.2 -2.30631e-05 0)
(44.2 -2.31614e-05 0)
(44.2 -2.30171e-05 0)
(44.2 -2.26151e-05 0)
(44.2 -2.1945e-05 0)
(44.2 -2.10061e-05 0)
(44.2 -1.97982e-05 0)
(44.2 -1.83251e-05 0)
(44.2 -1.65812e-05 0)
(44.2 -1.45476e-05 0)
(44.2 -1.21913e-05 0)
(44.2 -9.47805e-06 0)
(44.2 -6.37148e-06 0)
(44.2 -2.84837e-06 0)
(44.2 8.63269e-07 0)
(44.2 4.30706e-06 0)
(44.2 7.28034e-06 0)
(44.2 9.82721e-06 0)
(44.2 1.19987e-05 0)
(44.2 1.38336e-05 0)
(44.2 1.53607e-05 0)
(44.2 1.65873e-05 0)
(44.2 1.75115e-05 0)
(44.2 1.81325e-05 0)
(44.2 1.84691e-05 0)
(44.2 1.85455e-05 0)
(44.2 1.83966e-05 0)
(44.2 1.80556e-05 0)
(44.2 1.75491e-05 0)
(44.2 1.69065e-05 0)
(44.2 1.61505e-05 0)
(44.2 1.53077e-05 0)
(44.2 1.43988e-05 0)
(44.2 1.34464e-05 0)
(44.2 1.24684e-05 0)
(44.2 1.14824e-05 0)
(44.2 1.05022e-05 0)
(44.2 9.54011e-06 0)
(44.2 8.60537e-06 0)
(44.2 7.70541e-06 0)
(44.2 6.84551e-06 0)
(44.2 6.02936e-06 0)
(44.2 5.25905e-06 0)
(44.2 4.53548e-06 0)
(44.2 3.85869e-06 0)
(44.2 3.22798e-06 0)
(44.2 2.64202e-06 0)
(44.2 2.09888e-06 0)
(44.2 1.59656e-06 0)
(44.2 1.13315e-06 0)
(44.2 7.06373e-07 0)
(44.2 3.13666e-07 0)
(44.2 6.27573e-08 0)
(44.2 -1.11751e-07 0)
(44.2 -5.07804e-07 0)
(44.2 -1.10148e-06 0)
(44.2 -1.7467e-06 0)
(44.2 -2.44584e-06 0)
(44.2 -3.2005e-06 0)
(44.2 -4.01174e-06 0)
(44.2 -4.88013e-06 0)
(44.2 -5.80549e-06 0)
(44.2 -6.78701e-06 0)
(44.2 -7.82308e-06 0)
(44.2 -8.911e-06 0)
(44.2 -1.00469e-05 0)
(44.2 -1.12252e-05 0)
(44.2 -1.24384e-05 0)
(44.2 -1.36761e-05 0)
(44.2 -1.49248e-05 0)
(44.2 -1.61683e-05 0)
(44.2 -1.73864e-05 0)
(44.2 -1.85567e-05 0)
(44.2 -1.96533e-05 0)
(44.2 -2.06502e-05 0)
(44.2 -2.15184e-05 0)
(44.2 -2.2232e-05 0)
(44.2 -2.2763e-05 0)
(44.2 -2.30896e-05 0)
(44.2 -2.31885e-05 0)
(44.2 -2.3044e-05 0)
(44.2 -2.26409e-05 0)
(44.2 -2.19684e-05 0)
(44.2 -2.10272e-05 0)
(44.2 -1.9816e-05 0)
(44.2 -1.834e-05 0)
(44.2 -1.6594e-05 0)
(44.2 -1.45581e-05 0)
(44.2 -1.22002e-05 0)
(44.2 -9.48505e-06 0)
(44.2 -6.37633e-06 0)
(44.2 -2.85059e-06 0)
(44.2 8.64062e-07 0)
(44.2 4.31085e-06 0)
(44.2 7.28687e-06 0)
(44.2 9.83626e-06 0)
(44.2 1.20098e-05 0)
(44.2 1.38467e-05 0)
(44.2 1.5375e-05 0)
(44.2 1.66032e-05 0)
(44.2 1.75289e-05 0)
(44.2 1.81509e-05 0)
(44.2 1.84891e-05 0)
(44.2 1.85663e-05 0)
(44.2 1.84182e-05 0)
(44.2 1.80783e-05 0)
(44.2 1.75731e-05 0)
(44.2 1.69326e-05 0)
(44.2 1.61792e-05 0)
(44.2 1.53397e-05 0)
(44.2 1.44347e-05 0)
(44.2 1.34864e-05 0)
(44.2 1.25125e-05 0)
(44.2 1.15303e-05 0)
(44.2 1.05531e-05 0)
(44.2 9.59294e-06 0)
(44.2 8.65898e-06 0)
(44.2 7.75862e-06 0)
(44.2 6.89712e-06 0)
(44.2 6.07818e-06 0)
(44.2 5.30402e-06 0)
(44.2 4.57589e-06 0)
(44.2 3.89387e-06 0)
(44.2 3.25743e-06 0)
(44.2 2.66544e-06 0)
(44.2 2.11625e-06 0)
(44.2 1.60799e-06 0)
(44.2 1.13852e-06 0)
(44.2 7.05705e-07 0)
(44.2 3.07411e-07 0)
(44.2 5.82969e-08 0)
(44.2 -1.03086e-07 0)
(44.2 -4.97224e-07 0)
(44.2 -1.10486e-06 0)
(44.2 -1.76462e-06 0)
(44.2 -2.47855e-06 0)
(44.2 -3.24803e-06 0)
(44.2 -4.0738e-06 0)
(44.2 -4.95604e-06 0)
(44.2 -5.89411e-06 0)
(44.2 -6.88652e-06 0)
(44.2 -7.9312e-06 0)
(44.2 -9.02523e-06 0)
(44.2 -1.01645e-05 0)
(44.2 -1.13434e-05 0)
(44.2 -1.25543e-05 0)
(44.2 -1.3787e-05 0)
(44.2 -1.50286e-05 0)
(44.2 -1.62631e-05 0)
(44.2 -1.74713e-05 0)
(44.2 -1.86314e-05 0)
(44.2 -1.97181e-05 0)
(44.2 -2.0706e-05 0)
(44.2 -2.15665e-05 0)
(44.2 -2.22739e-05 0)
(44.2 -2.28e-05 0)
(44.2 -2.3123e-05 0)
(44.2 -2.32191e-05 0)
(44.2 -2.30721e-05 0)
(44.2 -2.26669e-05 0)
(44.2 -2.19927e-05 0)
(44.2 -2.10491e-05 0)
(44.2 -1.98359e-05 0)
(44.2 -1.83572e-05 0)
(44.2 -1.66083e-05 0)
(44.2 -1.45703e-05 0)
(44.2 -1.221e-05 0)
(44.2 -9.49304e-06 0)
(44.2 -6.38233e-06 0)
(44.2 -2.85437e-06 0)
(44.2 8.62717e-07 0)
(44.2 4.31204e-06 0)
(44.2 7.29059e-06 0)
(44.2 9.84239e-06 0)
(44.2 1.20184e-05 0)
(44.2 1.38573e-05 0)
(44.2 1.53879e-05 0)
(44.2 1.66173e-05 0)
(44.2 1.75436e-05 0)
(44.2 1.81662e-05 0)
(44.2 1.85037e-05 0)
(44.2 1.85808e-05 0)
(44.2 1.84319e-05 0)
(44.2 1.80906e-05 0)
(44.2 1.75832e-05 0)
(44.2 1.69395e-05 0)
(44.2 1.61821e-05 0)
(44.2 1.53376e-05 0)
(44.2 1.44268e-05 0)
(44.2 1.34725e-05 0)
(44.2 1.24925e-05 0)
(44.2 1.15045e-05 0)
(44.2 1.05223e-05 0)
(44.2 9.55829e-06 0)
(44.2 8.62166e-06 0)
(44.2 7.71994e-06 0)
(44.2 6.85836e-06 0)
(44.2 6.04059e-06 0)
(44.2 5.26872e-06 0)
(44.2 4.54376e-06 0)
(44.2 3.86568e-06 0)
(44.2 3.23367e-06 0)
(44.2 2.64638e-06 0)
(44.2 2.10205e-06 0)
(44.2 1.59893e-06 0)
(44.2 1.13486e-06 0)
(44.2 7.07335e-07 0)
(44.2 3.14087e-07 0)
(44.2 6.29033e-08 0)
(44.2 -1.12081e-07 0)
(44.2 -5.09488e-07 0)
(44.2 -1.10565e-06 0)
(44.2 -1.75388e-06 0)
(44.2 -2.45599e-06 0)
(44.2 -3.21358e-06 0)
(44.2 -4.02807e-06 0)
(44.2 -4.89991e-06 0)
(44.2 -5.82881e-06 0)
(44.2 -6.81401e-06 0)
(44.2 -7.85385e-06 0)
(44.2 -8.94568e-06 0)
(44.2 -1.00854e-05 0)
(44.2 -1.12676e-05 0)
(44.2 -1.24844e-05 0)
(44.2 -1.37255e-05 0)
(44.2 -1.49774e-05 0)
(44.2 -1.62236e-05 0)
(44.2 -1.74439e-05 0)
(44.2 -1.86159e-05 0)
(44.2 -1.97136e-05 0)
(44.2 -2.07109e-05 0)
(44.2 -2.1579e-05 0)
(44.2 -2.22922e-05 0)
(44.2 -2.28221e-05 0)
(44.2 -2.31473e-05 0)
(44.2 -2.32445e-05 0)
(44.2 -2.30978e-05 0)
(44.2 -2.2692e-05 0)
(44.2 -2.2016e-05 0)
(44.2 -2.10704e-05 0)
(44.2 -1.98543e-05 0)
(44.2 -1.83732e-05 0)
(44.2 -1.66225e-05 0)