/*--------------------------------*- C++ -*----------------------------------*\
| =========                 |                                                 |
| \\      /  F ield         | OpenFOAM: The Open Source CFD Toolbox           |
|  \\    /   O peration     | Version:  5.x                                   |
|   \\  /    A nd           | Web:      www.OpenFOAM.org                      |
|    \\/     M anipulation  |                                                 |
\*---------------------------------------------------------------------------*/
FoamFile
{
    version     2.0;
    format      ascii;
    class       volScalarField;
    location    "0";
    object      p;
}
// * * * * * * * * * * * * * * * * * * * * * * * * * * * * * * * * * * * * * //

dimensions      [0 2 -2 0 0 0 0];

internalField   nonuniform List<scalar> 
20540
(
-241.267
-241.244
-241.267
-241.244
-241.267
-241.244
-241.267
-241.244
-241.267
-241.244
-241.267
-241.244
-241.267
-241.244
-241.267
-241.244
-241.267
-241.244
-241.267
-241.244
-241.267
-241.244
-241.267
-241.244
-241.267
-241.244
-241.267
-241.244
-241.267
-241.244
-241.267
-241.244
-241.267
-241.244
-241.267
-241.244
-241.267
-241.244
-241.267
-241.244
-241.267
-241.244
-241.267
-241.244
-241.267
-241.244
-241.267
-241.244
-241.267
-241.244
-241.267
-241.244
-241.267
-241.244
-241.267
-241.244
-241.267
-241.244
-241.267
-241.244
-241.267
-241.244
-241.267
-241.244
-241.267
-241.244
-241.267
-241.244
-241.267
-241.244
-241.267
-241.244
-241.267
-241.244
-241.267
-241.244
-241.267
-241.244
-241.267
-241.244
-241.267
-241.244
-241.267
-241.244
-241.267
-241.244
-241.267
-241.244
-241.267
-241.244
-241.267
-241.244
-241.267
-241.244
-241.267
-241.244
-241.267
-241.244
-241.267
-241.244
-241.267
-241.244
-241.267
-241.244
-241.267
-241.244
-241.267
-241.244
-241.267
-241.244
-241.267
-241.244
-241.267
-241.244
-241.267
-241.244
-241.267
-241.244
-241.267
-241.244
-241.267
-241.244
-241.267
-241.244
-241.267
-241.244
-241.267
-241.244
-241.267
-241.244
-241.227
-241.212
-241.208
-241.215
-241.228
-241.246
-241.266
-241.287
-241.307
-241.329
-241.35
-241.372
-241.393
-241.416
-241.438
-241.46
-241.482
-241.505
-241.527
-241.549
-241.57
-241.592
-241.613
-241.633
-241.653
-241.673
-241.692
-241.71
-241.727
-241.744
-241.758
-241.77
-241.779
-241.784
-241.784
-241.776
-241.758
-241.727
-241.679
-241.61
-241.514
-241.385
-241.215
-240.998
-240.725
-240.387
-239.978
-239.49
-238.916
-238.254
-237.501
-236.658
-235.73
-234.727
-233.662
-232.554
-231.43
-230.32
-229.264
-228.311
-227.521
-226.966
-226.651
-226.653
-226.914
-227.454
-228.246
-229.328
-230.729
-232.487
-234.642
-237.245
-240.354
-244.047
-248.417
-253.593
-259.745
-267.11
-276.034
-287.037
-300.944
-319.153
-344.226
-381.42
-443.396
-570.218
-1015.38
-1665.52
-241.227
-241.212
-241.208
-241.215
-241.228
-241.246
-241.266
-241.287
-241.307
-241.329
-241.35
-241.372
-241.393
-241.416
-241.438
-241.46
-241.482
-241.505
-241.527
-241.549
-241.57
-241.592
-241.613
-241.633
-241.653
-241.673
-241.692
-241.71
-241.727
-241.744
-241.758
-241.77
-241.779
-241.784
-241.784
-241.776
-241.758
-241.727
-241.679
-241.61
-241.514
-241.385
-241.215
-240.998
-240.725
-240.387
-239.978
-239.49
-238.916
-238.254
-237.501
-236.658
-235.73
-234.727
-233.662
-232.554
-231.43
-230.32
-229.264
-228.311
-227.521
-226.967
-226.651
-226.653
-226.914
-227.454
-228.246
-229.328
-230.73
-232.487
-234.643
-237.245
-240.355
-244.047
-248.418
-253.594
-259.746
-267.112
-276.036
-287.04
-300.949
-319.161
-344.24
-381.444
-443.446
-570.392
-1014.98
-1651.71
-241.227
-241.212
-241.208
-241.215
-241.228
-241.246
-241.266
-241.287
-241.307
-241.329
-241.35
-241.372
-241.393
-241.416
-241.438
-241.46
-241.482
-241.505
-241.527
-241.549
-241.57
-241.592
-241.613
-241.633
-241.653
-241.673
-241.692
-241.71
-241.727
-241.744
-241.758
-241.77
-241.779
-241.784
-241.784
-241.776
-241.758
-241.727
-241.679
-241.61
-241.514
-241.385
-241.215
-240.998
-240.725
-240.387
-239.978
-239.49
-238.916
-238.254
-237.501
-236.658
-235.73
-234.727
-233.662
-232.554
-231.43
-230.32
-229.264
-228.311
-227.521
-226.967
-226.651
-226.653
-226.914
-227.454
-228.247
-229.328
-230.73
-232.488
-234.643
-237.246
-240.356
-244.049
-248.42
-253.597
-259.749
-267.116
-276.043
-287.049
-300.963
-319.182
-344.275
-381.507
-443.579
-570.839
-1014.01
-1635.29
-241.227
-241.212
-241.208
-241.215
-241.228
-241.246
-241.266
-241.287
-241.307
-241.329
-241.35
-241.372
-241.393
-241.416
-241.438
-241.46
-241.482
-241.505
-241.527
-241.549
-241.57
-241.592
-241.613
-241.633
-241.653
-241.673
-241.692
-241.71
-241.727
-241.744
-241.758
-241.77
-241.779
-241.784
-241.784
-241.776
-241.758
-241.727
-241.679
-241.61
-241.514
-241.385
-241.215
-240.998
-240.725
-240.387
-239.978
-239.49
-238.916
-238.254
-237.501
-236.658
-235.73
-234.727
-233.662
-232.554
-231.43
-230.32
-229.264
-228.311
-227.521
-226.967
-226.651
-226.653
-226.914
-227.455
-228.247
-229.329
-230.731
-232.489
-234.645
-237.248
-240.358
-244.051
-248.424
-253.602
-259.756
-267.125
-276.056
-287.068
-300.991
-319.225
-344.345
-381.633
-443.846
-571.687
-1012.26
-1615.85
-241.227
-241.212
-241.208
-241.215
-241.228
-241.246
-241.266
-241.287
-241.307
-241.329
-241.35
-241.372
-241.393
-241.416
-241.438
-241.46
-241.482
-241.505
-241.527
-241.549
-241.57
-241.592
-241.613
-241.633
-241.653
-241.673
-241.692
-241.71
-241.727
-241.744
-241.758
-241.77
-241.779
-241.784
-241.784
-241.776
-241.758
-241.727
-241.679
-241.61
-241.514
-241.385
-241.215
-240.998
-240.725
-240.387
-239.978
-239.49
-238.916
-238.254
-237.501
-236.658
-235.73
-234.727
-233.662
-232.554
-231.43
-230.32
-229.264
-228.312
-227.521
-226.967
-226.652
-226.654
-226.915
-227.455
-228.248
-229.33
-230.732
-232.491
-234.647
-237.251
-240.362
-244.057
-248.431
-253.611
-259.768
-267.142
-276.079
-287.102
-301.04
-319.302
-344.471
-381.859
-444.321
-573.11
-1009.5
-1592.95
-241.227
-241.212
-241.208
-241.215
-241.228
-241.246
-241.266
-241.287
-241.307
-241.329
-241.35
-241.372
-241.393
-241.416
-241.438
-241.46
-241.482
-241.505
-241.527
-241.549
-241.57
-241.592
-241.613
-241.633
-241.653
-241.673
-241.692
-241.71
-241.727
-241.744
-241.758
-241.77
-241.779
-241.784
-241.784
-241.776
-241.758
-241.727
-241.679
-241.61
-241.514
-241.385
-241.215
-240.998
-240.725
-240.387
-239.978
-239.49
-238.917
-238.254
-237.501
-236.658
-235.73
-234.727
-233.662
-232.555
-231.43
-230.32
-229.265
-228.312
-227.522
-226.968
-226.652
-226.655
-226.916
-227.457
-228.25
-229.332
-230.735
-232.494
-234.651
-237.256
-240.369
-244.065
-248.442
-253.626
-259.789
-267.17
-276.118
-287.158
-301.124
-319.431
-344.683
-382.239
-445.114
-575.321
-1005.48
-1566.17
-241.227
-241.212
-241.208
-241.215
-241.228
-241.246
-241.266
-241.287
-241.307
-241.329
-241.35
-241.372
-241.393
-241.416
-241.438
-241.46
-241.482
-241.505
-241.527
-241.549
-241.57
-241.592
-241.613
-241.633
-241.653
-241.673
-241.692
-241.71
-241.727
-241.744
-241.758
-241.77
-241.779
-241.784
-241.784
-241.776
-241.758
-241.727
-241.679
-241.61
-241.514
-241.385
-241.215
-240.998
-240.725
-240.387
-239.978
-239.49
-238.917
-238.254
-237.501
-236.658
-235.73
-234.727
-233.662
-232.555
-231.43
-230.321
-229.265
-228.313
-227.523
-226.969
-226.654
-226.656
-226.918
-227.459
-228.253
-229.336
-230.739
-232.5
-234.658
-237.265
-240.38
-244.08
-248.461
-253.651
-259.822
-267.216
-276.182
-287.249
-301.259
-319.64
-345.026
-382.852
-446.379
-578.579
-999.981
-1535.14
-241.227
-241.212
-241.208
-241.215
-241.228
-241.246
-241.266
-241.287
-241.307
-241.329
-241.35
-241.372
-241.393
-241.416
-241.438
-241.46
-241.482
-241.505
-241.527
-241.549
-241.57
-241.592
-241.613
-241.633
-241.653
-241.673
-241.692
-241.71
-241.727
-241.744
-241.758
-241.77
-241.779
-241.784
-241.784
-241.776
-241.758
-241.727
-241.68
-241.61
-241.514
-241.385
-241.215
-240.998
-240.725
-240.387
-239.978
-239.49
-238.917
-238.254
-237.501
-236.658
-235.731
-234.727
-233.663
-232.555
-231.431
-230.321
-229.266
-228.314
-227.524
-226.97
-226.656
-226.659
-226.921
-227.463
-228.257
-229.341
-230.746
-232.508
-234.669
-237.278
-240.397
-244.102
-248.49
-253.69
-259.874
-267.288
-276.282
-287.393
-301.473
-319.971
-345.566
-383.813
-448.33
-583.174
-992.875
-1499.63
-241.227
-241.212
-241.208
-241.215
-241.228
-241.246
-241.266
-241.287
-241.307
-241.329
-241.35
-241.372
-241.393
-241.416
-241.438
-241.46
-241.482
-241.505
-241.527
-241.549
-241.57
-241.592
-241.613
-241.633
-241.653
-241.673
-241.692
-241.71
-241.727
-241.744
-241.758
-241.77
-241.779
-241.784
-241.784
-241.776
-241.758
-241.727
-241.68
-241.61
-241.514
-241.385
-241.215
-240.998
-240.725
-240.387
-239.978
-239.49
-238.917
-238.255
-237.501
-236.659
-235.731
-234.728
-233.663
-232.556
-231.432
-230.322
-229.267
-228.315
-227.526
-226.972
-226.658
-226.663
-226.926
-227.468
-228.264
-229.35
-230.757
-232.521
-234.685
-237.299
-240.424
-244.137
-248.536
-253.75
-259.956
-267.399
-276.439
-287.617
-301.804
-320.482
-346.4
-385.286
-451.256
-589.405
-984.138
-1459.64
-241.227
-241.212
-241.208
-241.215
-241.228
-241.246
-241.266
-241.287
-241.307
-241.329
-241.35
-241.372
-241.393
-241.416
-241.438
-241.46
-241.482
-241.505
-241.527
-241.549
-241.57
-241.592
-241.613
-241.633
-241.653
-241.673
-241.692
-241.71
-241.727
-241.744
-241.758
-241.77
-241.779
-241.784
-241.784
-241.776
-241.758
-241.727
-241.68
-241.61
-241.514
-241.385
-241.215
-240.998
-240.725
-240.388
-239.978
-239.49
-238.917
-238.255
-237.502
-236.659
-235.732
-234.729
-233.664
-232.557
-231.433
-230.324
-229.269
-228.317
-227.528
-226.976
-226.663
-226.669
-226.933
-227.477
-228.275
-229.363
-230.773
-232.542
-234.711
-237.332
-240.466
-244.191
-248.606
-253.843
-260.081
-267.57
-276.677
-287.959
-302.31
-321.26
-347.666
-387.501
-455.522
-597.538
-973.903
-1415.53
-241.227
-241.212
-241.208
-241.215
-241.228
-241.246
-241.266
-241.287
-241.307
-241.329
-241.35
-241.372
-241.393
-241.416
-241.438
-241.46
-241.482
-241.505
-241.527
-241.549
-241.57
-241.592
-241.613
-241.633
-241.653
-241.673
-241.692
-241.71
-241.727
-241.744
-241.758
-241.77
-241.779
-241.784
-241.784
-241.776
-241.758
-241.727
-241.68
-241.61
-241.514
-241.385
-241.215
-240.998
-240.725
-240.388
-239.979
-239.491
-238.917
-238.255
-237.502
-236.66
-235.732
-234.73
-233.665
-232.558
-231.435
-230.326
-229.272
-228.321
-227.532
-226.981
-226.67
-226.677
-226.944
-227.49
-228.291
-229.383
-230.798
-232.572
-234.75
-237.381
-240.529
-244.272
-248.712
-253.984
-260.27
-267.829
-277.039
-288.476
-303.073
-322.431
-349.556
-390.763
-461.566
-607.748
-962.454
-1368.02
-241.227
-241.212
-241.208
-241.215
-241.228
-241.246
-241.266
-241.287
-241.307
-241.329
-241.35
-241.372
-241.393
-241.416
-241.438
-241.46
-241.482
-241.505
-241.527
-241.549
-241.57
-241.592
-241.613
-241.633
-241.653
-241.673
-241.692
-241.71
-241.727
-241.744
-241.758
-241.77
-241.779
-241.784
-241.784
-241.776
-241.758
-241.727
-241.68
-241.61
-241.514
-241.385
-241.216
-240.998
-240.725
-240.388
-239.979
-239.491
-238.918
-238.256
-237.503
-236.661
-235.734
-234.731
-233.667
-232.561
-231.437
-230.329
-229.276
-228.326
-227.539
-226.989
-226.681
-226.691
-226.96
-227.51
-228.315
-229.412
-230.835
-232.619
-234.808
-237.455
-240.623
-244.394
-248.872
-254.196
-260.555
-268.218
-277.58
-289.25
-304.211
-324.169
-352.336
-395.468
-469.86
-620.042
-950.159
-1318.04
-241.227
-241.212
-241.208
-241.215
-241.228
-241.246
-241.266
-241.287
-241.307
-241.329
-241.35
-241.372
-241.393
-241.416
-241.438
-241.46
-241.482
-241.505
-241.527
-241.549
-241.57
-241.592
-241.613
-241.633
-241.653
-241.673
-241.692
-241.71
-241.727
-241.744
-241.758
-241.77
-241.779
-241.784
-241.784
-241.776
-241.758
-241.727
-241.68
-241.61
-241.514
-241.385
-241.216
-240.998
-240.725
-240.388
-239.979
-239.492
-238.919
-238.257
-237.504
-236.662
-235.735
-234.733
-233.67
-232.564
-231.441
-230.334
-229.282
-228.333
-227.548
-227.001
-226.696
-226.711
-226.984
-227.539
-228.351
-229.457
-230.89
-232.688
-234.895
-237.565
-240.765
-244.577
-249.111
-254.512
-260.979
-268.796
-278.385
-290.395
-305.889
-326.713
-356.354
-402.087
-480.836
-634.168
-937.314
-1266.45
-241.227
-241.212
-241.208
-241.215
-241.228
-241.246
-241.266
-241.287
-241.307
-241.329
-241.35
-241.372
-241.393
-241.416
-241.438
-241.46
-241.482
-241.505
-241.527
-241.549
-241.57
-241.592
-241.613
-241.633
-241.653
-241.673
-241.692
-241.71
-241.727
-241.744
-241.758
-241.77
-241.779
-241.784
-241.784
-241.776
-241.758
-241.727
-241.68
-241.611
-241.515
-241.385
-241.216
-240.999
-240.726
-240.389
-239.98
-239.493
-238.92
-238.258
-237.506
-236.664
-235.738
-234.737
-233.674
-232.569
-231.447
-230.341
-229.291
-228.345
-227.563
-227.02
-226.72
-226.741
-227.02
-227.583
-228.405
-229.523
-230.972
-232.791
-235.025
-237.73
-240.975
-244.849
-249.466
-254.98
-261.606
-269.65
-279.569
-292.075
-308.333
-330.379
-362.038
-411.12
-494.743
-649.516
-923.911
-1213.63
-241.227
-241.212
-241.208
-241.215
-241.228
-241.246
-241.266
-241.287
-241.307
-241.329
-241.35
-241.372
-241.393
-241.416
-241.438
-241.46
-241.482
-241.505
-241.527
-241.549
-241.57
-241.592
-241.613
-241.633
-241.653
-241.673
-241.692
-241.71
-241.727
-241.744
-241.758
-241.77
-241.779
-241.784
-241.784
-241.776
-241.758
-241.727
-241.68
-241.611
-241.515
-241.386
-241.216
-240.999
-240.727
-240.39
-239.981
-239.494
-238.922
-238.261
-237.509
-236.668
-235.742
-234.742
-233.68
-232.576
-231.456
-230.352
-229.304
-228.361
-227.584
-227.046
-226.754
-226.785
-227.074
-227.649
-228.485
-229.622
-231.095
-232.943
-235.217
-237.973
-241.286
-245.25
-249.989
-255.67
-262.527
-270.9
-281.295
-294.507
-311.839
-335.559
-369.864
-422.985
-511.46
-665.008
-909.307
-1159
-241.227
-241.212
-241.208
-241.215
-241.228
-241.246
-241.266
-241.287
-241.307
-241.329
-241.35
-241.372
-241.393
-241.416
-241.438
-241.46
-241.482
-241.505
-241.527
-241.549
-241.57
-241.592
-241.613
-241.633
-241.653
-241.673
-241.692
-241.71
-241.727
-241.744
-241.758
-241.77
-241.779
-241.784
-241.784
-241.776
-241.758
-241.728
-241.68
-241.611
-241.515
-241.386
-241.217
-241
-240.728
-240.391
-239.983
-239.496
-238.925
-238.264
-237.513
-236.673
-235.749
-234.749
-233.689
-232.587
-231.47
-230.369
-229.324
-228.386
-227.615
-227.086
-226.806
-226.85
-227.153
-227.745
-228.603
-229.768
-231.275
-233.169
-235.5
-238.331
-241.743
-245.839
-250.754
-256.676
-263.868
-272.71
-283.779
-297.974
-316.77
-342.691
-380.268
-437.836
-530.27
-679.013
-892.095
-1100.99
-241.227
-241.212
-241.208
-241.215
-241.228
-241.246
-241.266
-241.287
-241.307
-241.329
-241.35
-241.372
-241.393
-241.416
-241.438
-241.46
-241.482
-241.505
-241.527
-241.549
-241.57
-241.592
-241.613
-241.633
-241.653
-241.673
-241.692
-241.71
-241.727
-241.744
-241.758
-241.77
-241.779
-241.784
-241.784
-241.776
-241.758
-241.728
-241.68
-241.611
-241.516
-241.387
-241.218
-241.001
-240.729
-240.393
-239.986
-239.499
-238.928
-238.269
-237.519
-236.68
-235.758
-234.76
-233.702
-232.604
-231.49
-230.393
-229.354
-228.423
-227.661
-227.145
-226.882
-226.947
-227.27
-227.887
-228.777
-229.982
-231.54
-233.499
-235.914
-238.855
-242.411
-246.696
-251.866
-258.132
-265.797
-275.298
-287.296
-302.819
-323.526
-352.179
-393.472
-455.292
-549.657
-689.315
-870.151
-1037.89
-241.227
-241.212
-241.208
-241.215
-241.228
-241.246
-241.266
-241.287
-241.307
-241.329
-241.35
-241.372
-241.393
-241.416
-241.438
-241.46
-241.482
-241.505
-241.527
-241.549
-241.57
-241.592
-241.613
-241.633
-241.653
-241.673
-241.692
-241.71
-241.727
-241.744
-241.758
-241.77
-241.779
-241.784
-241.784
-241.776
-241.759
-241.728
-241.681
-241.612
-241.516
-241.388
-241.219
-241.003
-240.731
-240.396
-239.989
-239.504
-238.934
-238.276
-237.528
-236.691
-235.771
-234.776
-233.722
-232.627
-231.519
-230.428
-229.398
-228.477
-227.729
-227.231
-226.993
-227.089
-227.442
-228.096
-229.032
-230.295
-231.928
-233.981
-236.518
-239.617
-243.378
-247.934
-253.463
-260.213
-268.532
-278.93
-292.166
-309.402
-332.459
-364.224
-409.227
-474.166
-567.235
-693.252
-841.102
-968.614
-241.227
-241.212
-241.208
-241.215
-241.228
-241.246
-241.266
-241.287
-241.307
-241.329
-241.35
-241.372
-241.393
-241.416
-241.438
-241.46
-241.482
-241.505
-241.527
-241.549
-241.57
-241.592
-241.613
-241.633
-241.653
-241.673
-241.692
-241.71
-241.727
-241.744
-241.758
-241.77
-241.779
-241.784
-241.784
-241.776
-241.759
-241.728
-241.681
-241.613
-241.517
-241.389
-241.221
-241.006
-240.735
-240.4
-239.995
-239.511
-238.943
-238.287
-237.541
-236.707
-235.791
-234.8
-233.751
-232.663
-231.561
-230.481
-229.462
-228.557
-227.829
-227.357
-227.157
-227.296
-227.693
-228.4
-229.404
-230.751
-232.491
-234.68
-237.391
-240.713
-244.764
-249.699
-255.726
-263.136
-272.333
-283.905
-298.707
-318.01
-343.705
-378.575
-426.511
-492.291
-579.928
-688.131
-803.139
-893.482
-241.227
-241.212
-241.208
-241.215
-241.228
-241.246
-241.266
-241.287
-241.307
-241.329
-241.35
-241.372
-241.393
-241.416
-241.438
-241.46
-241.482
-241.505
-241.527
-241.549
-241.57
-241.592
-241.613
-241.633
-241.653
-241.673
-241.692
-241.71
-241.728
-241.744
-241.758
-241.77
-241.779
-241.785
-241.784
-241.777
-241.759
-241.729
-241.682
-241.614
-241.519
-241.391
-241.224
-241.009
-240.739
-240.407
-240.003
-239.521
-238.956
-238.303
-237.561
-236.731
-235.82
-234.835
-233.794
-232.714
-231.624
-230.557
-229.556
-228.673
-227.974
-227.542
-227.395
-227.599
-228.058
-228.842
-229.942
-231.41
-233.302
-235.683
-238.638
-242.272
-246.724
-252.175
-258.87
-267.146
-277.467
-290.486
-307.124
-328.677
-356.929
-394.228
-443.324
-506.649
-584.494
-671.92
-755.82
-814.304
-241.227
-241.212
-241.208
-241.215
-241.228
-241.246
-241.266
-241.287
-241.307
-241.329
-241.35
-241.372
-241.393
-241.416
-241.438
-241.46
-241.482
-241.505
-241.527
-241.549
-241.57
-241.592
-241.613
-241.633
-241.653
-241.673
-241.692
-241.71
-241.728
-241.744
-241.758
-241.77
-241.78
-241.785
-241.785
-241.777
-241.76
-241.73
-241.683
-241.615
-241.521
-241.394
-241.228
-241.015
-240.747
-240.416
-240.015
-239.536
-238.974
-238.326
-237.589
-236.766
-235.862
-234.887
-233.856
-232.79
-231.716
-230.669
-229.693
-228.843
-228.187
-227.811
-227.742
-228.037
-228.585
-229.48
-230.716
-232.354
-234.458
-237.106
-240.396
-244.453
-249.44
-255.567
-263.117
-272.468
-284.127
-298.775
-317.319
-340.932
-371.047
-409.231
-456.783
-513.9
-578.339
-643.976
-700.39
-733.787
-241.227
-241.212
-241.208
-241.215
-241.228
-241.246
-241.266
-241.287
-241.307
-241.329
-241.35
-241.372
-241.393
-241.416
-241.438
-241.46
-241.482
-241.505
-241.527
-241.549
-241.57
-241.592
-241.613
-241.633
-241.653
-241.673
-241.692
-241.71
-241.728
-241.744
-241.758
-241.77
-241.78
-241.785
-241.785
-241.778
-241.761
-241.731
-241.685
-241.618
-241.524
-241.399
-241.234
-241.023
-240.757
-240.429
-240.032
-239.558
-239.002
-238.36
-237.631
-236.817
-235.924
-234.962
-233.947
-232.9
-231.85
-230.832
-229.894
-229.091
-228.495
-228.199
-228.241
-228.666
-229.341
-230.388
-231.814
-233.687
-236.08
-239.087
-242.822
-247.43
-253.097
-260.062
-268.631
-279.203
-292.283
-308.507
-328.639
-353.543
-384.067
-420.804
-463.662
-511.268
-560.335
-605.403
-639.43
-654.721
-241.227
-241.212
-241.208
-241.215
-241.228
-241.246
-241.266
-241.287
-241.307
-241.329
-241.35
-241.372
-241.393
-241.416
-241.438
-241.46
-241.482
-241.505
-241.527
-241.549
-241.57
-241.592
-241.613
-241.633
-241.653
-241.673
-241.692
-241.71
-241.728
-241.744
-241.758
-241.771
-241.78
-241.785
-241.785
-241.778
-241.762
-241.733
-241.687
-241.621
-241.529
-241.405
-241.243
-241.034
-240.772
-240.449
-240.057
-239.59
-239.041
-238.409
-237.692
-236.891
-236.015
-235.072
-234.08
-233.061
-232.045
-231.07
-230.184
-229.448
-228.94
-228.758
-228.955
-229.56
-230.409
-231.666
-233.348
-235.533
-238.307
-241.777
-246.072
-251.355
-257.827
-265.736
-275.39
-287.158
-301.472
-318.814
-339.668
-364.437
-393.286
-425.921
-461.311
-497.441
-531.232
-558.791
-576.094
-579.418
-241.227
-241.212
-241.208
-241.215
-241.228
-241.246
-241.266
-241.287
-241.307
-241.329
-241.35
-241.372
-241.393
-241.416
-241.438
-241.46
-241.482
-241.505
-241.527
-241.549
-241.57
-241.592
-241.613
-241.633
-241.653
-241.673
-241.692
-241.71
-241.728
-241.744
-241.758
-241.771
-241.78
-241.786
-241.786
-241.78
-241.763
-241.735
-241.691
-241.626
-241.536
-241.415
-241.256
-241.051
-240.795
-240.478
-240.094
-239.636
-239.1
-238.481
-237.78
-237
-236.146
-235.232
-234.273
-233.294
-232.327
-231.412
-230.601
-229.961
-229.574
-229.55
-229.961
-230.811
-231.892
-233.425
-235.439
-238.021
-241.268
-245.295
-250.241
-256.274
-263.588
-272.413
-283.004
-295.639
-310.591
-328.088
-348.253
-371.004
-395.944
-422.243
-448.552
-473.018
-493.426
-507.513
-513.381
-509.541
-241.227
-241.212
-241.208
-241.215
-241.228
-241.246
-241.266
-241.287
-241.307
-241.329
-241.35
-241.372
-241.393
-241.416
-241.438
-241.46
-241.482
-241.505
-241.527
-241.549
-241.57
-241.592
-241.613
-241.633
-241.653
-241.673
-241.692
-241.71
-241.728
-241.744
-241.758
-241.771
-241.781
-241.787
-241.787
-241.781
-241.766
-241.739
-241.696
-241.634
-241.546
-241.429
-241.274
-241.076
-240.827
-240.52
-240.147
-239.704
-239.184
-238.586
-237.909
-237.157
-236.337
-235.463
-234.552
-233.63
-232.732
-231.902
-231.197
-230.688
-230.468
-230.658
-231.352
-232.521
-233.898
-235.777
-238.194
-241.244
-245.025
-249.654
-255.263
-261.996
-270.014
-279.476
-290.537
-303.315
-317.869
-334.148
-351.943
-370.833
-390.148
-408.954
-426.092
-440.276
-450.245
-454.949
-453.723
-446.151
-241.227
-241.212
-241.208
-241.215
-241.228
-241.246
-241.266
-241.287
-241.307
-241.329
-241.35
-241.372
-241.393
-241.416
-241.438
-241.46
-241.482
-241.505
-241.527
-241.549
-241.57
-241.592
-241.613
-241.633
-241.653
-241.673
-241.692
-241.71
-241.728
-241.744
-241.759
-241.771
-241.781
-241.788
-241.789
-241.784
-241.77
-241.744
-241.704
-241.644
-241.561
-241.449
-241.301
-241.112
-240.874
-240.58
-240.225
-239.801
-239.306
-238.737
-238.095
-237.384
-236.612
-235.795
-234.951
-234.11
-233.309
-232.597
-232.035
-231.703
-231.704
-232.171
-233.224
-234.782
-236.512
-238.784
-241.644
-245.178
-249.478
-254.64
-260.762
-267.938
-276.252
-285.758
-296.468
-308.329
-321.196
-334.811
-348.786
-362.595
-375.594
-387.057
-396.235
-402.441
-405.128
-403.96
-398.854
-389.824
-241.227
-241.212
-241.208
-241.215
-241.228
-241.246
-241.266
-241.287
-241.307
-241.329
-241.35
-241.372
-241.393
-241.416
-241.438
-241.46
-241.482
-241.505
-241.527
-241.549
-241.57
-241.592
-241.613
-241.633
-241.653
-241.673
-241.692
-241.71
-241.728
-241.744
-241.759
-241.772
-241.782
-241.789
-241.791
-241.787
-241.775
-241.752
-241.715
-241.66
-241.583
-241.478
-241.34
-241.164
-240.942
-240.668
-240.336
-239.942
-239.482
-238.955
-238.362
-237.708
-237.005
-236.267
-235.518
-234.788
-234.119
-233.564
-233.191
-233.089
-233.368
-234.172
-235.644
-237.634
-239.733
-242.392
-245.652
-249.579
-254.235
-259.673
-265.933
-273.032
-280.955
-289.642
-298.978
-308.781
-318.797
-328.701
-338.104
-346.575
-353.671
-358.971
-362.117
-362.848
-361.028
-356.653
-349.849
-340.752
-241.227
-241.212
-241.208
-241.215
-241.228
-241.246
-241.265
-241.287
-241.307
-241.329
-241.35
-241.372
-241.393
-241.416
-241.438
-241.46
-241.482
-241.505
-241.527
-241.549
-241.57
-241.592
-241.613
-241.633
-241.653
-241.673
-241.692
-241.711
-241.728
-241.745
-241.76
-241.773
-241.784
-241.791
-241.795
-241.792
-241.783
-241.763
-241.73
-241.682
-241.613
-241.52
-241.396
-241.238
-241.038
-240.793
-240.495
-240.143
-239.732
-239.264
-238.74
-238.168
-237.559
-236.931
-236.309
-235.728
-235.233
-234.881
-234.746
-234.921
-235.522
-236.696
-238.596
-240.985
-243.39
-246.321
-249.803
-253.864
-258.518
-263.759
-269.558
-275.853
-282.548
-289.504
-296.543
-303.446
-309.967
-315.836
-320.784
-324.555
-326.929
-327.74
-326.884
-324.331
-320.123
-314.368
-307.223
-298.825
-241.227
-241.212
-241.208
-241.215
-241.228
-241.246
-241.265
-241.287
-241.307
-241.329
-241.35
-241.372
-241.393
-241.416
-241.438
-241.46
-241.482
-241.505
-241.527
-241.549
-241.57
-241.592
-241.613
-241.633
-241.653
-241.673
-241.692
-241.711
-241.728
-241.745
-241.76
-241.774
-241.786
-241.795
-241.8
-241.8
-241.793
-241.778
-241.753
-241.713
-241.656
-241.578
-241.475
-241.342
-241.175
-240.969
-240.72
-240.425
-240.084
-239.697
-239.269
-238.807
-238.326
-237.845
-237.391
-237
-236.721
-236.614
-236.753
-237.23
-238.158
-239.666
-241.9
-244.526
-247.046
-249.987
-253.346
-257.104
-261.224
-265.648
-270.292
-275.05
-279.79
-284.363
-288.604
-292.341
-295.407
-297.648
-298.933
-299.163
-298.277
-296.257
-293.123
-288.933
-283.779
-277.772
-271.044
-263.696
-241.227
-241.212
-241.208
-241.215
-241.228
-241.246
-241.265
-241.287
-241.307
-241.329
-241.349
-241.372
-241.393
-241.416
-241.438
-241.46
-241.482
-241.505
-241.526
-241.549
-241.57
-241.592
-241.613
-241.633
-241.653
-241.673
-241.692
-241.711
-241.729
-241.746
-241.762
-241.776
-241.789
-241.799
-241.806
-241.81
-241.808
-241.8
-241.783
-241.756
-241.716
-241.66
-241.585
-241.487
-241.364
-241.212
-241.03
-240.815
-240.568
-240.291
-239.991
-239.676
-239.361
-239.067
-238.822
-238.661
-238.632
-238.79
-239.204
-239.954
-241.129
-242.824
-245.142
-247.678
-249.983
-252.534
-255.3
-258.225
-261.24
-264.262
-267.194
-269.931
-272.362
-274.379
-275.878
-276.768
-276.976
-276.448
-275.157
-273.098
-270.291
-266.776
-262.612
-257.871
-252.637
-246.995
-241.034
-234.822
-241.227
-241.212
-241.208
-241.215
-241.228
-241.246
-241.265
-241.287
-241.307
-241.329
-241.349
-241.372
-241.393
-241.416
-241.438
-241.46
-241.482
-241.505
-241.526
-241.549
-241.57
-241.592
-241.613
-241.633
-241.653
-241.673
-241.693
-241.711
-241.729
-241.747
-241.763
-241.778
-241.792
-241.804
-241.814
-241.822
-241.826
-241.826
-241.82
-241.808
-241.788
-241.758
-241.716
-241.66
-241.59
-241.503
-241.399
-241.277
-241.14
-240.991
-240.836
-240.686
-240.554
-240.458
-240.426
-240.487
-240.681
-241.053
-241.654
-242.54
-243.762
-245.366
-247.395
-249.449
-251.201
-253.015
-254.849
-256.64
-258.316
-259.804
-261.028
-261.915
-262.397
-262.417
-261.931
-260.906
-259.33
-257.204
-254.544
-251.382
-247.758
-243.725
-239.338
-234.657
-229.743
-224.655
-219.45
-214.168
-241.227
-241.212
-241.208
-241.215
-241.228
-241.246
-241.265
-241.287
-241.307
-241.329
-241.349
-241.372
-241.393
-241.416
-241.438
-241.46
-241.482
-241.505
-241.526
-241.549
-241.57
-241.592
-241.613
-241.633
-241.654
-241.673
-241.693
-241.712
-241.73
-241.747
-241.764
-241.78
-241.796
-241.81
-241.823
-241.835
-241.845
-241.853
-241.859
-241.862
-241.862
-241.859
-241.852
-241.84
-241.824
-241.803
-241.779
-241.753
-241.727
-241.705
-241.694
-241.702
-241.742
-241.828
-241.98
-242.221
-242.577
-243.079
-243.754
-244.627
-245.714
-247.011
-248.51
-249.881
-250.944
-251.927
-252.794
-253.487
-253.953
-254.14
-254.001
-253.496
-252.594
-251.276
-249.534
-247.37
-244.799
-241.845
-238.539
-234.92
-231.03
-226.914
-222.618
-218.187
-213.664
-209.089
-204.498
-199.918
-241.227
-241.212
-241.208
-241.215
-241.228
-241.246
-241.265
-241.287
-241.307
-241.329
-241.349
-241.372
-241.393
-241.416
-241.438
-241.46
-241.482
-241.505
-241.526
-241.549
-241.57
-241.592
-241.613
-241.634
-241.654
-241.674
-241.693
-241.712
-241.73
-241.748
-241.766
-241.783
-241.799
-241.815
-241.831
-241.847
-241.864
-241.88
-241.898
-241.917
-241.938
-241.962
-241.99
-242.023
-242.061
-242.108
-242.164
-242.232
-242.316
-242.419
-242.547
-242.705
-242.902
-243.148
-243.453
-243.83
-244.29
-244.842
-245.492
-246.235
-247.052
-247.901
-248.74
-249.347
-249.694
-249.864
-249.833
-249.56
-249.013
-248.161
-246.985
-245.47
-243.611
-241.413
-238.887
-236.053
-232.936
-229.566
-225.978
-222.208
-218.292
-214.267
-210.167
-206.025
-201.871
-197.732
-193.632
-189.588
-241.227
-241.212
-241.208
-241.215
-241.228
-241.247
-241.265
-241.287
-241.307
-241.329
-241.349
-241.372
-241.393
-241.416
-241.437
-241.46
-241.482
-241.505
-241.526
-241.549
-241.57
-241.592
-241.613
-241.634
-241.654
-241.674
-241.693
-241.712
-241.731
-241.749
-241.767
-241.785
-241.803
-241.821
-241.84
-241.86
-241.882
-241.907
-241.936
-241.971
-242.013
-242.063
-242.125
-242.201
-242.293
-242.405
-242.539
-242.698
-242.886
-243.106
-243.362
-243.656
-243.992
-244.372
-244.796
-245.265
-245.774
-246.313
-246.863
-247.395
-247.862
-248.198
-248.34
-248.2
-247.878
-247.322
-246.522
-245.455
-244.106
-242.465
-240.531
-238.308
-235.806
-233.043
-230.04
-226.822
-223.419
-219.861
-216.178
-212.401
-208.561
-204.686
-200.8
-196.929
-193.092
-189.309
-185.594
-181.96
-241.227
-241.212
-241.208
-241.215
-241.228
-241.247
-241.265
-241.287
-241.307
-241.329
-241.349
-241.372
-241.393
-241.416
-241.437
-241.461
-241.482
-241.505
-241.526
-241.549
-241.57
-241.592
-241.613
-241.634
-241.654
-241.674
-241.693
-241.713
-241.731
-241.75
-241.768
-241.787
-241.806
-241.826
-241.848
-241.872
-241.9
-241.933
-241.973
-242.022
-242.083
-242.159
-242.253
-242.37
-242.512
-242.684
-242.891
-243.134
-243.419
-243.746
-244.116
-244.529
-244.983
-245.47
-245.983
-246.507
-247.021
-247.499
-247.901
-248.178
-248.265
-248.082
-247.557
-246.739
-245.832
-244.663
-243.234
-241.539
-239.576
-237.351
-234.875
-232.163
-229.235
-226.114
-222.825
-219.395
-215.852
-212.224
-208.537
-204.818
-201.089
-197.372
-193.686
-190.049
-186.474
-182.975
-179.561
-176.24
-241.226
-241.212
-241.208
-241.215
-241.227
-241.247
-241.265
-241.287
-241.307
-241.329
-241.349
-241.372
-241.393
-241.416
-241.437
-241.461
-241.482
-241.505
-241.526
-241.549
-241.57
-241.592
-241.612
-241.634
-241.654
-241.674
-241.693
-241.713
-241.732
-241.751
-241.769
-241.789
-241.809
-241.831
-241.854
-241.882
-241.914
-241.954
-242.003
-242.064
-242.141
-242.238
-242.359
-242.509
-242.692
-242.915
-243.18
-243.492
-243.854
-244.266
-244.726
-245.231
-245.771
-246.335
-246.902
-247.449
-247.942
-248.338
-248.586
-248.622
-248.372
-247.749
-246.685
-245.339
-243.99
-242.37
-240.491
-238.358
-235.98
-233.37
-230.548
-227.534
-224.351
-221.026