/*--------------------------------*- C++ -*----------------------------------*\
| =========                 |                                                 |
| \\      /  F ield         | OpenFOAM: The Open Source CFD Toolbox           |
|  \\    /   O peration     | Version:  5.x                                   |
|   \\  /    A nd           | Web:      www.OpenFOAM.org                      |
|    \\/     M anipulation  |                                                 |
\*---------------------------------------------------------------------------*/
FoamFile
{
    version     2.0;
    format      ascii;
    class       volScalarField;
    location    "100";
    object      nuTilda;
}
// * * * * * * * * * * * * * * * * * * * * * * * * * * * * * * * * * * * * * //

dimensions      [0 2 -1 0 0 0 0];

internalField   nonuniform List<scalar> 
20540
(
6.40856e-05
7.76044e-05
6.44412e-05
7.92525e-05
6.54046e-05
8.46576e-05
6.67576e-05
9.37537e-05
6.83108e-05
0.000106095
7.01027e-05
0.000121014
7.27019e-05
0.00013778
7.75571e-05
0.000155607
8.45504e-05
0.000173517
9.23988e-05
0.000190153
9.95235e-05
0.00020364
0.000104326
0.000211501
0.000105224
0.000210683
0.000100657
0.000197823
8.93544e-05
0.00016987
7.17681e-05
0.000128637
5.45161e-05
8.96131e-05
4.82955e-05
6.09348e-05
4.67046e-05
4.86578e-05
4.65527e-05
4.6777e-05
4.64814e-05
4.66052e-05
4.64852e-05
4.65555e-05
4.6491e-05
4.65309e-05
4.64948e-05
4.65197e-05
4.64972e-05
4.65125e-05
4.64987e-05
4.65076e-05
4.64997e-05
4.65043e-05
4.65003e-05
4.6502e-05
4.65005e-05
4.65004e-05
4.65006e-05
4.64994e-05
4.65003e-05
4.64984e-05
4.64996e-05
4.64972e-05
4.64996e-05
4.64972e-05
4.65003e-05
4.64983e-05
4.65006e-05
4.64993e-05
4.65005e-05
4.65004e-05
4.65003e-05
4.65018e-05
4.64998e-05
4.65039e-05
4.64989e-05
4.6507e-05
4.64975e-05
4.65115e-05
4.64954e-05
4.65179e-05
4.64921e-05
4.65275e-05
4.64869e-05
4.6546e-05
4.64823e-05
4.65887e-05
4.65062e-05
4.66629e-05
4.66001e-05
4.74006e-05
4.72482e-05
5.33e-05
5.0233e-05
7.36921e-05
6.16271e-05
0.000106918
7.94762e-05
0.000145196
9.39189e-05
0.000178536
0.000101907
0.000198605
0.000103965
0.000205548
0.000101399
0.000202542
9.56571e-05
0.000192602
8.82212e-05
0.000178333
8.06305e-05
0.0001618
7.43957e-05
0.00014455
7.06371e-05
0.000127705
6.85263e-05
0.000112094
6.6898e-05
9.84327e-05
6.53722e-05
8.73827e-05
6.40054e-05
7.9468e-05
6.30267e-05
7.49046e-05
6.26672e-05
7.35464e-05
1.40991e-05
1.22494e-05
1.16067e-05
1.129e-05
1.11145e-05
1.10064e-05
1.09353e-05
1.08877e-05
1.08558e-05
1.08344e-05
1.08204e-05
1.08119e-05
1.08074e-05
1.08059e-05
1.08068e-05
1.08095e-05
1.08136e-05
1.08188e-05
1.08249e-05
1.08317e-05
1.08391e-05
1.0847e-05
1.08553e-05
1.08639e-05
1.08728e-05
1.08819e-05
1.08913e-05
1.09008e-05
1.09104e-05
1.09201e-05
1.093e-05
1.09399e-05
1.095e-05
1.09601e-05
1.09704e-05
1.09808e-05
1.09914e-05
1.10021e-05
1.10129e-05
1.10238e-05
1.10348e-05
1.1046e-05
1.10573e-05
1.10688e-05
1.10805e-05
1.10924e-05
1.11046e-05
1.11172e-05
1.11302e-05
1.11438e-05
1.11579e-05
1.11729e-05
1.11887e-05
1.12056e-05
1.12236e-05
1.12432e-05
1.12642e-05
1.12876e-05
1.13129e-05
1.13416e-05
1.13736e-05
1.14106e-05
1.1453e-05
1.14847e-05
1.15078e-05
1.15339e-05
1.15616e-05
1.15891e-05
1.16165e-05
1.16434e-05
1.16703e-05
1.16969e-05
1.17235e-05
1.1752e-05
1.17754e-05
1.18117e-05
1.18206e-05
1.18721e-05
1.18519e-05
1.19084e-05
1.18696e-05
1.18605e-05
1.18815e-05
1.16299e-05
1.19323e-05
1.11368e-05
1.22378e-05
1.19778e-05
4.24978e-05
3.77956e-05
3.57892e-05
3.47941e-05
3.42349e-05
3.38879e-05
3.36577e-05
3.3502e-05
3.33963e-05
3.33245e-05
3.32768e-05
3.32466e-05
3.32295e-05
3.32225e-05
3.32232e-05
3.32298e-05
3.32412e-05
3.32562e-05
3.32741e-05
3.32944e-05
3.33166e-05
3.33405e-05
3.33657e-05
3.33921e-05
3.34193e-05
3.34474e-05
3.34761e-05
3.35052e-05
3.35349e-05
3.35648e-05
3.35952e-05
3.36258e-05
3.36568e-05
3.36881e-05
3.37198e-05
3.37518e-05
3.37842e-05
3.3817e-05
3.38502e-05
3.38838e-05
3.39177e-05
3.3952e-05
3.39867e-05
3.40219e-05
3.40576e-05
3.4094e-05
3.41313e-05
3.41695e-05
3.4209e-05
3.42499e-05
3.42927e-05
3.43375e-05
3.43849e-05
3.44352e-05
3.44887e-05
3.45465e-05
3.46084e-05
3.46767e-05
3.47501e-05
3.4833e-05
3.49241e-05
3.50289e-05
3.51528e-05
3.5251e-05
3.53209e-05
3.53932e-05
3.54695e-05
3.55461e-05
3.56222e-05
3.56968e-05
3.57711e-05
3.58446e-05
3.59166e-05
3.59972e-05
3.6058e-05
3.61658e-05
3.61856e-05
3.63457e-05
3.62898e-05
3.64755e-05
3.63841e-05
3.64054e-05
3.6476e-05
3.59076e-05
3.65179e-05
3.48127e-05
3.58389e-05
3.62488e-05
7.68071e-05
7.16486e-05
6.7214e-05
6.49457e-05
6.36636e-05
6.28663e-05
6.23356e-05
6.19728e-05
6.17227e-05
6.15494e-05
6.14304e-05
6.13511e-05
6.13019e-05
6.12755e-05
6.12669e-05
6.12722e-05
6.12883e-05
6.1313e-05
6.13445e-05
6.13816e-05
6.14232e-05
6.14685e-05
6.15169e-05
6.15678e-05
6.16208e-05
6.16756e-05
6.17317e-05
6.1789e-05
6.18472e-05
6.19062e-05
6.19659e-05
6.20262e-05
6.20871e-05
6.21486e-05
6.22106e-05
6.22734e-05
6.23367e-05
6.24007e-05
6.24654e-05
6.25307e-05
6.25967e-05
6.26632e-05
6.27304e-05
6.27984e-05
6.28673e-05
6.29373e-05
6.30085e-05
6.30813e-05
6.31561e-05
6.32334e-05
6.33136e-05
6.33974e-05
6.34853e-05
6.35783e-05
6.36766e-05
6.37824e-05
6.38945e-05
6.40176e-05
6.41487e-05
6.42957e-05
6.44541e-05
6.46338e-05
6.48596e-05
6.50356e-05
6.51538e-05
6.52583e-05
6.53627e-05
6.54655e-05
6.55637e-05
6.56557e-05
6.57409e-05
6.58228e-05
6.58921e-05
6.59815e-05
6.60203e-05
6.61615e-05
6.61253e-05
6.63753e-05
6.62189e-05
6.65541e-05
6.63573e-05
6.65196e-05
6.6545e-05
6.60861e-05
6.64922e-05
6.52775e-05
6.37379e-05
6.55642e-05
0.000107425
0.000108946
0.000104637
0.000101607
9.96681e-05
9.83869e-05
9.74982e-05
9.68641e-05
9.64053e-05
9.60693e-05
9.58221e-05
9.56408e-05
9.55098e-05
9.54177e-05
9.53561e-05
9.53185e-05
9.52997e-05
9.52957e-05
9.53033e-05
9.53199e-05
9.53436e-05
9.5373e-05
9.54071e-05
9.54446e-05
9.5485e-05
9.55276e-05
9.55719e-05
9.56175e-05
9.56638e-05
9.57106e-05
9.57576e-05
9.58047e-05
9.58515e-05
9.58981e-05
9.59445e-05
9.59906e-05
9.60366e-05
9.60823e-05
9.61279e-05
9.61733e-05
9.62186e-05
9.62636e-05
9.63083e-05
9.63528e-05
9.63969e-05
9.64409e-05
9.64847e-05
9.65285e-05
9.65727e-05
9.66177e-05
9.66637e-05
9.67116e-05
9.67615e-05
9.68145e-05
9.68704e-05
9.69313e-05
9.69953e-05
9.7067e-05
9.71421e-05
9.7229e-05
9.73194e-05
9.74183e-05
9.75886e-05
9.76467e-05
9.76474e-05
9.76075e-05
9.7546e-05
9.74695e-05
9.73783e-05
9.7271e-05
9.71447e-05
9.7008e-05
9.68437e-05
9.67011e-05
9.64933e-05
9.6398e-05
9.61264e-05
9.61371e-05
9.57961e-05
9.58917e-05
9.55901e-05
9.5582e-05
9.55036e-05
9.52786e-05
9.52737e-05
9.54948e-05
9.30242e-05
9.64948e-05
0.000134699
0.000144732
0.000141369
0.000137697
0.000135078
0.000133271
0.000131981
0.000131035
0.000130329
0.000129794
0.000129384
0.000129069
0.000128826
0.000128639
0.000128498
0.000128391
0.000128313
0.000128256
0.000128216
0.00012819
0.000128173
0.000128164
0.000128161
0.000128163
0.000128168
0.000128176
0.000128185
0.000128196
0.000128208
0.000128219
0.00012823
0.00012824
0.000128248
0.000128255
0.000128261
0.000128265
0.000128268
0.000128269
0.000128269
0.000128267
0.000128264
0.00012826
0.000128254
0.000128246
0.000128236
0.000128224
0.00012821
0.000128194
0.000128176
0.000128157
0.000128136
0.000128114
0.000128091
0.000128068
0.000128045
0.000128023
0.000128
0.00012798
0.000127958
0.000127941
0.00012792
0.00012789
0.00012796
0.000127822
0.000127632
0.000127379
0.00012708
0.000126747
0.000126385
0.000125993
0.000125567
0.00012512
0.000124625
0.000124148
0.000123589
0.000123137
0.000122525
0.000122143
0.000121531
0.000121175
0.00012072
0.00012025
0.000120052
0.000119648
0.000119311
0.000120252
0.000117504
0.00012194
0.000159584
0.000180658
0.000179582
0.000175456
0.000172075
0.000169623
0.000167825
0.000166471
0.000165434
0.000164627
0.000163991
0.000163485
0.000163079
0.000162752
0.000162489
0.000162276
0.000162103
0.000161961
0.000161843
0.000161743
0.000161658
0.000161583
0.000161516
0.000161455
0.000161398
0.000161344
0.000161293
0.000161242
0.000161191
0.000161139
0.000161086
0.00016103
0.000160972
0.00016091
0.000160844
0.000160775
0.000160703
0.000160627
0.000160548
0.000160466
0.000160381
0.000160292
0.0001602
0.000160104
0.000160003
0.000159898
0.000159788
0.000159673
0.000159552
0.000159426
0.000159295
0.00015916
0.000159019
0.000158874
0.000158724
0.00015857
0.00015841
0.000158245
0.000158071
0.000157895
0.000157704
0.00015748
0.000157393
0.000156959
0.000156483
0.000155919
0.000155281
0.000154586
0.00015384
0.000153048
0.000152201
0.000151317
0.000150362
0.000149411
0.000148363
0.000147396
0.000146302
0.000145344
0.000144322
0.000143304
0.000142551
0.000141402
0.0001409
0.000140058
0.000139226
0.000140288
0.000137522
0.000141705
0.00018173
0.000216202
0.000219279
0.000215215
0.000211126
0.000207974
0.000205586
0.000203741
0.000202292
0.000201136
0.000200203
0.00019944
0.000198811
0.000198289
0.000197851
0.000197483
0.00019717
0.0001969
0.000196663
0.000196452
0.00019626
0.000196081
0.000195914
0.000195755
0.000195601
0.00019545
0.000195301
0.000195153
0.000195004
0.000194853
0.000194699
0.00019454
0.000194376
0.000194206
0.000194031
0.000193849
0.00019366
0.000193466
0.000193266
0.00019306
0.000192849
0.000192631
0.000192407
0.000192176
0.000191938
0.000191691
0.000191436
0.000191171
0.000190897
0.000190612
0.000190318
0.000190013
0.000189698
0.000189374
0.000189037
0.00018869
0.000188329
0.000187955
0.000187562
0.000187155
0.000186724
0.000186227
0.000185915
0.00018507
0.000184197
0.000183208
0.000182117
0.00018094
0.000179686
0.000178365
0.000176962
0.000175504
0.000173947
0.00017237
0.000170682
0.000169024
0.000167291
0.000165559
0.000163949
0.000162084
0.000160798
0.000158836
0.000157733
0.000156281
0.000154758
0.000155273
0.000152686
0.000155822
0.000200277
0.000250108
0.000259738
0.00025665
0.000252098
0.000248277
0.000245262
0.000242863
0.000240929
0.000239349
0.000238043
0.000236951
0.000236029
0.000235243
0.000234568
0.000233985
0.000233474
0.000233022
0.000232615
0.000232242
0.000231895
0.000231566
0.000231253
0.000230949
0.000230652
0.000230359
0.000230068
0.000229777
0.000229484
0.000229188
0.000228886
0.000228577
0.000228261
0.000227935
0.0002276
0.000227255
0.0002269
0.000226536
0.000226162
0.000225778
0.000225386
0.000224984
0.000224571
0.000224148
0.000223713
0.000223266
0.000222805
0.00022233
0.000221839
0.000221332
0.000220808
0.000220268
0.00021971
0.000219135
0.00021854
0.000217925
0.000217287
0.000216625
0.000215932
0.000215212
0.000214458
0.000213596
0.000212978
0.000211594
0.0002102
0.000208657
0.000206984
0.000205195
0.000203297
0.000201306
0.000199205
0.000197022
0.000194714
0.000192346
0.000189863
0.000187329
0.000184783
0.000182084
0.000179666
0.000176797
0.000174678
0.000171805
0.000169787
0.000167528
0.000165228
0.00016452
0.000161963
0.000164442
0.000214095
0.00028059
0.000299734
0.000299055
0.000294553
0.000290227
0.000286617
0.000283639
0.000281165
0.000279091
0.000277336
0.000275835
0.00027454
0.000273412
0.000272424
0.00027155
0.000270771
0.000270068
0.000269424
0.000268826
0.000268263
0.000267724
0.000267204
0.000266698
0.000266201
0.000265708
0.000265217
0.000264726
0.000264231
0.000263731
0.000263223
0.000262706
0.000262176
0.000261634
0.000261078
0.000260507
0.000259922
0.000259322
0.000258708
0.00025808
0.000257439
0.000256783
0.000256112
0.000255425
0.000254721
0.000253999
0.000253257
0.000252495
0.000251709
0.000250901
0.000250067
0.000249209
0.000248324
0.000247412
0.00024647
0.000245498
0.000244491
0.000243447
0.000242358
0.000241225
0.000240047
0.000238713
0.000237695
0.000235625
0.00023357
0.000231326
0.000228924
0.000226374
0.000223682
0.000220866
0.000217911
0.00021484
0.000211623
0.000208289
0.000204844
0.000201245
0.000197694
0.000193843
0.000190364
0.000186337
0.000183074
0.000179135
0.000175969
0.000172614
0.000169511
0.000167229
0.000163763
0.000167056
0.000221904
0.000305319
0.000337445
0.000341261
0.000337708
0.000333246
0.000329187
0.000325669
0.000322638
0.00032002
0.000317747
0.000315758
0.000314003
0.000312445
0.000311052
0.0003098
0.000308664
0.000307624
0.00030666
0.000305757
0.000304897
0.000304071
0.00030327
0.000302487
0.000301715
0.000300949
0.000300184
0.000299419
0.000298649
0.000297871
0.000297082
0.00029628
0.000295463
0.000294627
0.000293771
0.000292896
0.000292
0.000291084
0.000290147
0.000289191
0.000288214
0.000287217
0.000286198
0.000285158
0.000284094
0.000283004
0.000281888
0.000280743
0.000279566
0.000278357
0.000277114
0.000275835
0.000274519
0.000273164
0.000271768
0.000270328
0.000268839
0.000267298
0.000265696
0.000264028
0.000262305
0.000260372
0.000258838
0.000255913
0.000253037
0.000249924
0.00024662
0.000243138
0.000239479
0.000235661
0.000231676
0.000227535
0.000223231
0.000218745
0.000214153
0.000209304
0.000204529
0.000199348
0.000194543
0.000189164
0.000184495
0.000179223
0.000174736
0.000170016
0.000165835
0.000162302
0.00015634
0.000161632
0.000222387
0.000321411
0.00037026
0.00038144
0.000380276
0.000376356
0.000372176
0.000368271
0.000364737
0.000361568
0.00035873
0.000356184
0.000353886
0.000351802
0.000349903
0.000348167
0.000346569
0.000345088
0.000343701
0.000342389
0.000341135
0.000339924
0.000338745
0.000337588
0.000336447
0.000335313
0.000334182
0.000333049
0.000331909
0.000330759
0.000329594
0.000328412
0.000327209
0.000325982
0.000324729
0.000323449
0.000322141
0.000320806
0.000319442
0.00031805
0.00031663
0.000315182
0.000313705
0.000312197
0.000310658
0.000309085
0.000307476
0.000305828
0.000304139
0.000302406
0.000300628
0.000298802
0.000296925
0.000294995
0.00029301
0.000290965
0.000288856
0.000286675
0.000284415
0.000282067
0.000279649
0.000276961
0.000274773
0.000270792
0.000266909
0.000262727
0.000258317
0.000253697
0.000248866
0.00024384
0.000238617
0.000233196
0.000227594
0.000221756
0.000215793
0.000209512
0.00020326
0.000196571
0.000190175
0.000183214
0.000176893
0.000170004
0.000163889
0.00015778
0.000151805
0.000147698
0.00013823
0.000144595
0.000214364
0.000325548
0.000394594
0.000416844
0.000420229
0.000417987
0.000414294
0.000410335
0.000406471
0.000402823
0.000399429
0.000396286
0.000393376
0.000390677
0.000388169
0.000385833
0.000383652
0.000381605
0.000379669
0.000377825
0.000376051
0.000374331
0.000372653
0.000371003
0.000369372
0.000367752
0.000366134
0.000364513
0.000362884
0.000361242
0.00035958
0.000357896
0.000356185
0.000354443
0.000352667
0.000350856
0.000349008
0.000347123
0.0003452
0.000343239
0.00034124
0.000339203
0.000337126
0.000335009
0.00033285
0.000330646
0.000328395
0.000326094
0.00032374
0.000321329
0.000318858
0.000316325
0.000313726
0.000311057
0.000308315
0.000305495
0.000302592
0.000299596
0.0002965
0.000293288
0.00028999
0.000286356
0.000283338
0.000278058
0.000272945
0.000267456
0.000261695
0.000255686
0.000249432
0.000242944
0.000236227
0.000229278
0.000222112
0.000214693
0.000207076
0.00019917
0.000191138
0.000182769
0.000174471
0.00016575
0.000157454
0.000148798
0.000140673
0.000133124
0.000125038
0.000120034
0.000108594
0.000112421
0.000197089
0.000314436
0.000405782
0.000443491
0.000454492
0.000455703
0.000453522
0.00045012
0.000446292
0.000442373
0.000438522
0.000434809
0.000431262
0.000427884
0.000424671
0.000421621
0.000418727
0.000415973
0.000413343
0.000410816
0.000408373
0.000405994
0.000403664
0.00040137
0.000399099
0.000396841
0.000394586
0.000392327
0.000390057
0.000387769
0.000385458
0.000383118
0.000380743
0.000378329
0.000375873
0.000373371
0.000370821
0.000368222
0.000365574
0.000362875
0.000360125
0.000357325
0.000354472
0.000351566
0.000348604
0.000345585
0.000342505
0.000339361
0.000336149
0.000332864
0.000329504
0.000326063
0.000322538
0.000318923
0.000315216
0.000311407
0.000307493
0.000303462
0.000299306
0.000295002
0.000290592
0.00028577
0.000281699
0.000274823
0.000268203
0.000261114
0.000253698
0.000245989
0.000237996
0.000229732
0.000221198
0.000212409
0.000203344
0.000194044
0.000184438
0.00017464
0.000164536
0.000154277
0.000143913
0.000133378
0.000123216
0.00011308
0.000103638
9.51864e-05
8.68009e-05
8.12379e-05
7.24075e-05
7.23373e-05
0.000171948
0.00028612
0.000398211
0.000455855
0.000478551
0.000485841
0.000486792
0.00048497
0.000481836
0.000478068
0.000474018
0.000469877
0.000465747
0.000461683
0.000457712
0.000453853
0.00045012
0.000446515
0.00044303
0.000439652
0.000436362
0.000433143
0.000429979
0.000426855
0.000423757
0.000420674
0.000417594
0.000414507
0.000411406
0.000408282
0.000405128
0.000401937
0.000398703
0.00039542
0.000392083
0.000388688
0.000385233
0.000381714
0.000378131
0.000374483
0.000370767
0.000366985
0.000363134
0.000359213
0.00035522
0.000351152
0.000347007
0.000342781
0.000338469
0.000334065
0.000329567
0.000324966
0.00032026
0.00031544
0.000310502
0.000305436
0.000300238
0.000294894
0.000289395
0.000283711
0.000277895
0.00027158
0.000266166
0.00025732
0.000248839
0.000239771
0.000230307
0.000220501
0.000210371
0.000199938
0.000189201
0.000178203
0.000166911
0.000155453
0.000143754
0.000132097
0.000120432
0.000109107
9.82896e-05
8.81097e-05
7.90317e-05
7.08919e-05
6.40476e-05
5.84841e-05
5.3764e-05
5.06324e-05
4.71887e-05
4.63038e-05
0.000164894
0.000243698
0.000366077
0.00044672
0.000486014
0.000503047
0.000509558
0.000510926
0.000509575
0.000506702
0.000502958
0.000498717
0.000494204
0.000489555
0.000484849
0.000480142
0.00047548
0.000470895
0.000466397
0.000461987
0.000457655
0.00045339
0.000449178
0.000445004
0.000440855
0.000436719
0.000432582
0.000428434
0.000424266
0.000420067
0.00041583
0.000411545
0.000407206
0.000402806
0.000398338
0.000393797
0.00038918
0.000384483
0.000379703
0.000374839
0.000369889
0.000364852
0.000359725
0.000354508
0.000349197
0.00034379
0.000338284
0.000332674
0.000326957
0.000321127
0.000315177
0.000309101
0.000302892
0.00029654
0.00029004
0.000283378
0.000276549
0.000269534
0.000262329
0.000254891
0.000247287
0.00023908
0.000231926
0.000220618
0.000209809
0.000198284
0.000186312
0.000174004
0.000161446
0.000148752
0.000136045
0.000123525
0.00011135
9.97999e-05
8.90105e-05
7.92646e-05
7.06258e-05
6.32294e-05
5.70893e-05
5.21041e-05
4.82535e-05
4.53034e-05
4.3149e-05
4.16233e-05
4.05445e-05
3.98607e-05
3.93829e-05
3.90277e-05
0.00014771
0.000191376
0.000306432
0.000407837
0.000468301
0.000499748
0.000515262
0.000522219
0.000524344
0.000523579
0.000521011
0.00051729
0.000512822
0.000507869
0.000502597
0.000497113
0.000491513
0.00048587
0.000480233
0.000474625
0.000469057
0.000463527
0.00045803
0.000452556
0.000447095
0.000441635
0.000436165
0.000430674
0.00042515
0.000419585
0.000413969
0.000408291
0.000402543
0.000396718
0.000390808
0.000384806
0.000378708
0.000372508
0.000366205
0.000359795
0.000353275
0.000346644
0.000339898
0.000333036
0.000326052
0.000318944
0.000311707
0.000304337
0.000296829
0.000289178
0.000281378
0.000273421
0.000265299
0.000257001
0.000248514
0.000239824
0.000230913
0.000221762
0.000212356
0.00020266
0.000192738
0.000182162
0.00017275
0.000158717
0.000145699
0.000132403
0.000119368
0.000106912
9.52801e-05
8.46805e-05
7.52556e-05
6.71054e-05
6.0235e-05
5.46242e-05
5.01572e-05
4.67231e-05
4.41518e-05
4.22912e-05
4.09944e-05
4.01245e-05
3.95839e-05
3.92995e-05
3.92144e-05
3.92406e-05
3.93457e-05
3.94218e-05
3.96333e-05
3.96035e-05
0.000115312
0.000140982
0.000224324
0.000332548
0.000415044
0.000465759
0.000494729
0.000510658
0.000518756
0.000521955
0.000521953
0.000519791
0.000516139
0.000511443
0.000506001
0.000500007
0.000493611
0.000486952
0.000480132
0.000473218
0.000466251
0.000459254
0.000452235
0.000445198
0.000438139
0.000431052
0.00042393
0.000416764
0.000409545
0.000402264
0.000394911
0.000387477
0.000379952
0.000372328
0.000364596
0.000356746
0.000348774
0.000340672
0.000332436
0.000324064
0.000315552
0.000306899
0.000298102
0.000289158
0.000280059
0.0002708
0.000261371
0.00025176
0.000241958
0.000231952
0.000221737
0.000211309
0.000200676
0.000189856
0.000178877
0.000167789
0.000156651
0.000145545
0.00013456
0.000123798
0.000113395
0.000103249
9.45282e-05
8.36572e-05
7.47623e-05
6.68362e-05
6.01323e-05
5.46518e-05
5.03011e-05
4.69469e-05
4.4434e-05
4.26089e-05
4.13253e-05
4.04625e-05
3.99197e-05
3.96361e-05
3.95514e-05
3.95901e-05
3.97063e-05
3.98708e-05
4.00628e-05
4.02699e-05
4.04834e-05
4.06875e-05
4.08959e-05
4.10599e-05
4.12693e-05
4.13436e-05
7.68411e-05
9.62116e-05
0.000137857
0.000223873
0.000317328
0.000388819
0.000435809
0.000465019
0.000482542
0.000492379
0.000497017
0.000498028
0.000496447
0.000492976
0.000488105
0.000482162
0.000475373
0.000467949
0.000460069
0.000451867
0.000443435
0.000434834
0.000426101
0.00041726
0.000408324
0.000399297
0.00039018
0.000380972
0.000371666
0.000362259
0.000352743
0.000343113
0.000333362
0.000323481
0.000313462
0.000303295
0.000292967
0.000282466
0.00027178
0.000260896
0.000249805
0.000238503
0.000226994
0.000215291
0.00020342
0.000191423
0.000179358
0.0001673
0.000155339
0.000143579
0.000132131
0.000121111
0.00011063
0.000100791
9.16785e-05
8.33611e-05
7.5879e-05
6.92531e-05
6.3473e-05
5.85148e-05
5.43278e-05
5.08254e-05
4.81186e-05
4.54271e-05
4.35576e-05
4.21499e-05
4.11584e-05
4.05e-05
4.00994e-05
3.99198e-05
3.9887e-05
3.99474e-05
4.00687e-05
4.0229e-05
4.04152e-05
4.0616e-05
4.08263e-05
4.10394e-05
4.12527e-05
4.14631e-05
4.16684e-05
4.18663e-05
4.20574e-05
4.22338e-05
4.2406e-05
4.25547e-05
4.2711e-05
4.27945e-05
5.43542e-05
6.20967e-05
7.63622e-05
0.000114304
0.000182451
0.000259495
0.00032436
0.00037096
0.000402082
0.000422053
0.000434191
0.000440708
0.000443092
0.000442377
0.000439305
0.000434399
0.000428005
0.000420403
0.000411868
0.000402626
0.000392847
0.000382651
0.000372121
0.000361317
0.000350279
0.000339032
0.00032759
0.000315958
0.000304134
0.000292113
0.000279886
0.000267446
0.00025479
0.000241925
0.000228869
0.000215655
0.000202335
0.000188978
0.000175676
0.000162535
0.000149673
0.00013722
0.000125301
0.000114037
0.000103535
9.38804e-05
8.51327e-05
7.73244e-05
7.046e-05
6.45178e-05
5.94536e-05
5.52054e-05
5.1698e-05
4.88483e-05
4.65686e-05
4.47746e-05
4.33863e-05
4.23319e-05
4.15482e-05
4.09807e-05
4.05855e-05
4.03335e-05
4.02179e-05
4.02029e-05
4.02549e-05
4.03571e-05
4.04948e-05
4.06565e-05
4.08337e-05
4.10202e-05
4.12119e-05
4.14052e-05
4.15986e-05
4.17898e-05
4.19789e-05
4.21638e-05
4.23452e-05
4.25213e-05
4.26928e-05
4.28582e-05
4.30181e-05
4.31702e-05
4.33165e-05
4.3452e-05
4.35828e-05
4.37005e-05
4.3819e-05
4.38941e-05
4.70326e-05
4.82186e-05
5.05648e-05
5.68424e-05
7.60195e-05
0.000113441
0.000163746
0.000215378
0.000259602
0.000293293
0.000316988
0.000332512
0.000341712
0.000346068
0.000346685
0.000344369
0.000339668
0.000332933
0.000324538
0.000314822
0.000304048
0.000292414
0.000280072
0.000267139
0.000253716
0.000239895
0.000225766
0.00021143
0.000196997
0.000182594
0.000168358
0.000154439
0.00014099
0.000128162
0.000116093
0.000104904
9.46858e-05
8.54981e-05
7.73667e-05
7.02842e-05
6.4214e-05
5.90944e-05
5.48456e-05
5.13756e-05
4.85867e-05
4.63812e-05
4.46658e-05
4.33534e-05
4.23664e-05
4.16403e-05
4.11211e-05
4.07615e-05
4.05306e-05
4.04114e-05
4.03888e-05
4.04251e-05
4.05005e-05
4.06034e-05
4.07259e-05
4.08628e-05
4.10092e-05
4.11668e-05
4.1314e-05
4.1499e-05
4.16656e-05
4.1836e-05
4.20062e-05
4.21743e-05
4.23399e-05
4.25024e-05
4.26615e-05
4.28169e-05
4.29688e-05
4.31166e-05
4.32608e-05
4.34006e-05
4.35366e-05
4.36679e-05
4.37952e-05
4.39175e-05
4.40354e-05
4.41476e-05
4.42554e-05
4.43562e-05
4.44531e-05
4.45424e-05
4.46312e-05
4.46938e-05
4.61953e-05
4.58005e-05
4.55571e-05
4.54858e-05
4.64667e-05
5.081e-05
6.09328e-05
7.77514e-05
9.95845e-05
0.000123171
0.000145368
0.000164103
0.000178441
0.000188262
0.000193893
0.000195848
0.000194659
0.000190764
0.000184624
0.000176711
0.000167463
0.000157276
0.000146506
0.000135477
0.000124479
0.000113769
0.000103563
9.40353e-05
8.5315e-05
7.74849e-05
7.05832e-05
6.46081e-05
5.9525e-05
5.52744e-05
5.178e-05
4.89556e-05
4.67109e-05
4.49578e-05
4.36138e-05
4.26044e-05
4.18629e-05
4.13316e-05
4.09674e-05
4.07374e-05
4.062e-05
4.05955e-05
4.06288e-05
4.07005e-05
4.07988e-05
4.09154e-05
4.10444e-05
4.11818e-05
4.13244e-05
4.147e-05
4.16169e-05
4.17637e-05
4.19096e-05
4.20541e-05
4.21967e-05
4.23376e-05
4.24758e-05
4.26153e-05
4.27402e-05
4.28909e-05
4.3023e-05
4.31556e-05
4.3286e-05
4.34133e-05
4.35377e-05
4.36587e-05
4.37766e-05
4.38912e-05
4.40026e-05
4.41107e-05
4.42156e-05
4.43172e-05
4.44156e-05
4.45106e-05
4.46025e-05
4.46907e-05
4.47757e-05
4.48569e-05
4.49348e-05
4.50087e-05
4.50789e-05
4.51448e-05
4.52114e-05
4.52654e-05
4.63145e-05
4.5991e-05
4.56513e-05
4.53047e-05
4.49404e-05
4.46486e-05
4.46853e-05
4.53962e-05
4.72875e-05
5.02941e-05
5.41642e-05
5.84443e-05
6.25987e-05
6.61536e-05
6.87842e-05
7.03331e-05
7.07858e-05
7.02406e-05
6.88551e-05
6.68198e-05
6.43432e-05
6.16284e-05
5.88547e-05
5.61662e-05
5.36658e-05
5.14178e-05
4.94542e-05
4.77808e-05
4.63832e-05
4.52342e-05
4.43009e-05
4.35495e-05
4.2948e-05
4.24715e-05
4.21073e-05
4.18538e-05
4.16768e-05
4.15588e-05
4.149e-05
4.14628e-05
4.14714e-05
4.15101e-05
4.15736e-05
4.16572e-05
4.17564e-05
4.1867e-05
4.19854e-05
4.21089e-05
4.22351e-05
4.23624e-05
4.24894e-05
4.26152e-05
4.27391e-05
4.28609e-05
4.29802e-05
4.30969e-05
4.3211e-05
4.33225e-05
4.34314e-05
4.3538e-05
4.36418e-05
4.37457e-05
4.38382e-05
4.39491e-05
4.40459e-05
4.41426e-05
4.42374e-05
4.43296e-05
4.44194e-05
4.45066e-05
4.45913e-05
4.46734e-05
4.47531e-05
4.48303e-05
4.49051e-05
4.49774e-05
4.50474e-05
4.51149e-05
4.51801e-05
4.52429e-05
4.53033e-05
4.53615e-05
4.54168e-05
4.547e-05
4.5521e-05
4.55742e-05
4.56286e-05
4.56802e-05
4.63856e-05
4.62012e-05
4.60055e-05
4.58092e-05
4.56122e-05
4.54079e-05
4.51948e-05
4.49853e-05
4.48129e-05
4.47073e-05
4.46858e-05
4.47458e-05
4.48657e-05
4.50147e-05
4.51759e-05
4.52982e-05
4.5359e-05
4.53427e-05
4.5248e-05
4.50918e-05
4.48897e-05
4.46645e-05
4.44287e-05
4.42144e-05
4.40187e-05
4.38422e-05
4.36854e-05
4.35475e-05
4.34269e-05
4.33211e-05
4.32279e-05
4.31452e-05
4.30716e-05
4.30067e-05
4.29508e-05
4.29052e-05
4.28711e-05
4.28503e-05
4.28441e-05
4.28533e-05
4.2878e-05
4.29177e-05
4.2971e-05
4.3036e-05
4.31108e-05
4.31931e-05
4.32809e-05
4.33722e-05
4.34656e-05
4.35597e-05
4.36536e-05
4.37466e-05
4.3838e-05
4.39276e-05
4.40152e-05
4.41007e-05
4.41841e-05
4.42653e-05
4.43444e-05
4.44216e-05
4.44965e-05
4.45714e-05
4.46376e-05
4.4717e-05
4.47861e-05
4.4855e-05
4.49223e-05
4.49878e-05
4.50514e-05
4.5113e-05
4.51728e-05
4.52308e-05
4.52869e-05
4.53413e-05
4.53939e-05
4.54448e-05
4.5494e-05
4.55415e-05
4.55873e-05
4.56317e-05
4.5674e-05
4.57149e-05
4.57552e-05
4.5799e-05
4.58425e-05
4.58895e-05
4.59329e-05
4.59753e-05
4.64215e-05
4.63014e-05
4.61782e-05
4.60573e-05
4.594e-05
4.58265e-05
4.57157e-05
4.5607e-05
4.55002e-05
4.53969e-05
4.52991e-05
4.52089e-05
4.51277e-05
4.50555e-05
4.49912e-05
4.49331e-05
4.48796e-05
4.48262e-05
4.47711e-05
4.47149e-05
4.46586e-05
4.4603e-05
4.45487e-05
4.44963e-05
4.44458e-05
4.43974e-05
4.43511e-05
4.43068e-05
4.42641e-05
4.4223e-05
4.41831e-05
4.41443e-05
4.41067e-05
4.40708e-05
4.40376e-05
4.40085e-05
4.3985e-05
4.39688e-05
4.39615e-05
4.39641e-05
4.39773e-05
4.4001e-05
4.40346e-05
4.40771e-05
4.41272e-05
4.41833e-05
4.4244e-05
4.43079e-05
4.43736e-05
4.44403e-05
4.4507e-05
4.45732e-05
4.46385e-05
4.47025e-05
4.4765e-05
4.4826e-05
4.48853e-05
4.49431e-05
4.49993e-05
4.50541e-05
4.51072e-05
4.516e-05
4.52067e-05
4.52626e-05
4.53112e-05
4.53595e-05
4.54067e-05
4.54526e-05
4.54971e-05
4.55402e-05
4.5582e-05
4.56225e-05
4.56617e-05
4.56997e-05
4.57364e-05
4.57719e-05
4.58063e-05
4.58395e-05
4.58712e-05
4.59025e-05
4.59348e-05
4.59705e-05
4.60057e-05
4.60418e-05
4.60755e-05
4.61093e-05
4.61417e-05
4.61729e-05
4.64456e-05
4.63641e-05
4.62811e-05
4.62e-05
4.61218e-05
4.60466e-05
4.59744e-05
4.5905e-05
4.58383e-05
4.57742e-05
4.57127e-05
4.56537e-05
4.55972e-05
4.55434e-05
4.54921e-05
4.54433e-05
4.53968e-05
4.53524e-05
4.53099e-05
4.52692e-05
4.52302e-05
4.51927e-05
4.51568e-05
4.51223e-05
4.50891e-05
4.50572e-05
4.50264e-05
4.49967e-05
4.4968e-05
4.49401e-05
4.49128e-05
4.48861e-05
4.48601e-05
4.48349e-05
4.48112e-05
4.47899e-05
4.4772e-05
4.47588e-05
4.47514e-05
4.47508e-05
4.47574e-05
4.47715e-05
4.47927e-05
4.48204e-05
4.48537e-05
4.48916e-05
4.49331e-05
4.49771e-05
4.50227e-05
4.50692e-05
4.51159e-05
4.51623e-05
4.52081e-05
4.5253e-05
4.5297e-05
4.53398e-05
4.53815e-05
4.5422e-05
4.54614e-05
4.54997e-05
4.55368e-05
4.55738e-05
4.56063e-05
4.56452e-05
4.56791e-05
4.57127e-05
4.57455e-05
4.57774e-05
4.58083e-05
4.58383e-05
4.58673e-05
4.58954e-05
4.59226e-05
4.5949e-05
4.59746e-05
4.59991e-05
4.60228e-05
4.60473e-05
4.60737e-05
4.61019e-05
4.61293e-05
4.61558e-05
4.61812e-05
4.62064e-05
4.62307e-05
4.62555e-05
4.62795e-05
4.63033e-05
4.6462e-05
4.64068e-05
4.63506e-05
4.62958e-05
4.6243e-05
4.61921e-05
4.61433e-05
4.60964e-05
4.60513e-05
4.60081e-05
4.59667e-05
4.59269e-05
4.58888e-05
4.58523e-05
4.58173e-05
4.57837e-05
4.57516e-05
4.57208e-05
4.56914e-05
4.56631e-05
4.56361e-05
4.56101e-05
4.55852e-05
4.55612e-05
4.55381e-05
4.55159e-05
4.54945e-05
4.54738e-05
4.54538e-05
4.54343e-05
4.54153e-05
4.53968e-05
4.53786e-05
4.5361e-05
4.53443e-05
4.5329e-05
4.5316e-05
4.5306e-05
4.52998e-05
4.52982e-05
4.53015e-05
4.531e-05
4.53234e-05
4.53416e-05
4.53638e-05
4.53894e-05
4.54176e-05
4.54478e-05
4.54792e-05
4.55113e-05
4.55437e-05
4.55759e-05
4.56077e-05
4.5639e-05
4.56696e-05
4.56994e-05
4.57284e-05
4.57565e-05
4.57839e-05
4.58105e-05
4.58363e-05
4.58619e-05
4.58844e-05
4.59113e-05
4.59347e-05
4.5958e-05
4.59807e-05
4.60028e-05
4.60242e-05
4.60449e-05
4.6065e-05
4.60845e-05
4.61033e-05
4.61213e-05
4.61394e-05
4.61591e-05
4.61806e-05
4.62018e-05
4.62223e-05
4.62422e-05
4.62616e-05
4.62805e-05
4.62991e-05
4.63176e-05
4.63357e-05
4.63542e-05
4.63724e-05
4.63906e-05
4.64731e-05
4.64357e-05
4.63977e-05
4.63607e-05
4.6325e-05
4.62906e-05
4.62575e-05
4.62258e-05
4.61953e-05
4.6166e-05
4.61378e-05
4.61108e-05
4.60849e-05
4.606e-05
4.60361e-05
4.60132e-05
4.59912e-05
4.59701e-05
4.59499e-05
4.59304e-05
4.59118e-05
4.58939e-05
4.58766e-05
4.58601e-05
4.58441e-05
4.58287e-05
4.58138e-05
4.57995e-05
4.57855e-05
4.5772e-05
4.57588e-05
4.57459e-05
4.57333e-05
4.5721e-05