/*--------------------------------*- C++ -*----------------------------------*\
| =========                 |                                                 |
| \\      /  F ield         | OpenFOAM: The Open Source CFD Toolbox           |
|  \\    /   O peration     | Version:  5.x                                   |
|   \\  /    A nd           | Web:      www.OpenFOAM.org                      |
|    \\/     M anipulation  |                                                 |
\*---------------------------------------------------------------------------*/
FoamFile
{
    version     2.0;
    format      ascii;
    class       volScalarField;
    location    "100";
    object      p;
}
// * * * * * * * * * * * * * * * * * * * * * * * * * * * * * * * * * * * * * //

dimensions      [0 2 -2 0 0 0 0];

internalField   nonuniform List<scalar> 
20540
(
-51.5835
-47.6234
-51.5835
-47.6284
-51.5837
-47.631
-51.5839
-47.6303
-51.5843
-47.6281
-51.585
-47.6262
-51.5859
-47.6257
-51.5873
-47.6276
-51.5891
-47.6325
-51.5914
-47.6408
-51.594
-47.6528
-51.5968
-47.6684
-51.5998
-47.6875
-51.603
-47.7098
-51.6061
-47.7359
-51.6094
-47.7676
-51.6129
-47.8064
-51.6172
-47.8535
-51.6224
-47.9097
-51.6286
-47.9766
-51.6359
-48.0555
-51.6445
-48.1481
-51.6545
-48.2562
-51.6661
-48.3811
-51.6794
-48.5238
-51.6944
-48.684
-51.711
-48.8601
-51.7287
-49.0477
-51.7467
-49.2382
-51.7637
-49.4163
-51.7755
-49.541
-51.7811
-49.6018
-51.7808
-49.6019
-51.7746
-49.5412
-51.7622
-49.4186
-51.7452
-49.2472
-51.7272
-49.0634
-51.7094
-48.8813
-51.6928
-48.7093
-51.6776
-48.5516
-51.664
-48.4103
-51.652
-48.2856
-51.6416
-48.1768
-51.6327
-48.0829
-51.625
-48.0023
-51.6185
-47.9336
-51.6129
-47.8753
-51.6083
-47.826
-51.6044
-47.7848
-51.6011
-47.7508
-51.598
-47.7229
-51.5949
-47.6994
-51.5919
-47.679
-51.589
-47.6617
-51.5863
-47.6478
-51.5839
-47.6374
-51.5818
-47.6305
-51.5802
-47.6267
-51.579
-47.6257
-51.5781
-47.6266
-51.5776
-47.6286
-51.5772
-47.6305
-51.577
-47.631
-51.5769
-47.6284
-51.5768
-47.624
-52.0646
-67.2346
-75.0851
-79.5041
-83.31
-86.6108
-89.3146
-91.6081
-93.6327
-95.4202
-97.0183
-98.4543
-99.7613
-100.952
-102.048
-103.059
-103.997
-104.87
-105.687
-106.451
-107.17
-107.845
-108.482
-109.084
-109.654
-110.194
-110.707
-111.193
-111.657
-112.098
-112.518
-112.919
-113.302
-113.668
-114.019
-114.354
-114.676
-114.985
-115.284
-115.574
-115.856
-116.134
-116.41
-116.687
-116.969
-117.261
-117.567
-117.895
-118.251
-118.645
-119.086
-119.587
-120.16
-120.823
-121.593
-122.491
-123.542
-124.776
-126.231
-127.956
-130.017
-132.544
-135.627
-138.111
-139.719
-141.469
-143.472
-145.614
-147.875
-150.249
-152.69
-155.216
-157.72
-160.277
-162.711
-165.108
-167.317
-169.313
-170.944
-172.56
-172.63
-174.739
-171.407
-176.957
-167.225
-188.204
-165.985
-264.159
-52.0623
-67.2337
-75.0847
-79.5039
-83.3099
-86.6108
-89.3145
-91.6081
-93.6326
-95.4202
-97.0183
-98.4543
-99.7613
-100.952
-102.048
-103.059
-103.997
-104.87
-105.687
-106.451
-107.17
-107.845
-108.482
-109.084
-109.654
-110.194
-110.707
-111.193
-111.657
-112.098
-112.518
-112.919
-113.302
-113.668
-114.019
-114.354
-114.676
-114.985
-115.284
-115.574
-115.856
-116.134
-116.41
-116.687
-116.969
-117.261
-117.567
-117.895
-118.251
-118.645
-119.086
-119.587
-120.16
-120.823
-121.593
-122.491
-123.542
-124.776
-126.231
-127.956
-130.018
-132.544
-135.627
-138.111
-139.719
-141.469
-143.472
-145.614
-147.875
-150.25
-152.69
-155.216
-157.72
-160.278
-162.712
-165.108
-167.317
-169.314
-170.944
-172.56
-172.629
-174.739
-171.405
-176.955
-167.218
-188.188
-166.057
-262.693
-52.0534
-67.2314
-75.0841
-79.5036
-83.3097
-86.6107
-89.3144
-91.608
-93.6326
-95.4201
-97.0183
-98.4543
-99.7613
-100.952
-102.048
-103.059
-103.997
-104.87
-105.687
-106.451
-107.17
-107.845
-108.483
-109.085
-109.654
-110.194
-110.707
-111.193
-111.657
-112.098
-112.518
-112.919
-113.302
-113.669
-114.019
-114.354
-114.676
-114.986
-115.284
-115.574
-115.856
-116.134
-116.41
-116.687
-116.969
-117.261
-117.567
-117.895
-118.251
-118.645
-119.086
-119.587
-120.16
-120.823
-121.593
-122.491
-123.542
-124.776
-126.231
-127.957
-130.018
-132.545
-135.628
-138.112
-139.72
-141.47
-143.473
-145.615
-147.876
-150.25
-152.691
-155.217
-157.721
-160.279
-162.713
-165.109
-167.319
-169.314
-170.945
-172.56
-172.629
-174.739
-171.398
-176.952
-167.202
-188.139
-166.151
-260.291
-52.0363
-67.2257
-75.0826
-79.5029
-83.3093
-86.6104
-89.3143
-91.608
-93.6326
-95.4201
-97.0183
-98.4543
-99.7613
-100.952
-102.048
-103.059
-103.997
-104.87
-105.687
-106.451
-107.17
-107.845
-108.483
-109.085
-109.654
-110.194
-110.707
-111.194
-111.657
-112.098
-112.518
-112.919
-113.302
-113.669
-114.019
-114.354
-114.676
-114.986
-115.284
-115.574
-115.856
-116.134
-116.41
-116.687
-116.969
-117.261
-117.567
-117.895
-118.251
-118.645
-119.086
-119.587
-120.161
-120.824
-121.593
-122.491
-123.543
-124.777
-126.232
-127.957
-130.019
-132.546
-135.629
-138.113
-139.721
-141.472
-143.475
-145.617
-147.878
-150.253
-152.694
-155.22
-157.724
-160.282
-162.716
-165.112
-167.323
-169.317
-170.949
-172.562
-172.629
-174.739
-171.388
-176.943
-167.173
-188.001
-166.279
-256.251
-52.0184
-67.2162
-75.0798
-79.5017
-83.3087
-86.6101
-89.3141
-91.6078
-93.6325
-95.4201
-97.0183
-98.4543
-99.7613
-100.952
-102.048
-103.059
-103.997
-104.87
-105.687
-106.451
-107.17
-107.845
-108.483
-109.085
-109.654
-110.194
-110.707
-111.194
-111.657
-112.098
-112.518
-112.92
-113.303
-113.669
-114.019
-114.355
-114.676
-114.986
-115.285
-115.574
-115.857
-116.135
-116.41
-116.687
-116.97
-117.261
-117.568
-117.895
-118.252
-118.646
-119.087
-119.588
-120.161
-120.824
-121.594
-122.492
-123.544
-124.778
-126.233
-127.959
-130.02
-132.548
-135.631
-138.115
-139.724
-141.475
-143.478
-145.62
-147.882
-150.257
-152.698
-155.225
-157.73
-160.287
-162.723
-165.118
-167.331
-169.323
-170.957
-172.567
-172.633
-174.744
-171.378
-176.931
-167.14
-187.727
-166.417
-250.42
-52.005
-67.2048
-75.0764
-79.5003
-83.308
-86.6097
-89.3138
-91.6077
-93.6324
-95.42
-97.0183
-98.4543
-99.7613
-100.952
-102.048
-103.059
-103.998
-104.871
-105.687
-106.452
-107.17
-107.846
-108.483
-109.085
-109.655
-110.195
-110.707
-111.194
-111.657
-112.098
-112.519
-112.92
-113.303
-113.669
-114.019
-114.355
-114.677
-114.986
-115.285
-115.575
-115.857
-116.135
-116.411
-116.688
-116.97
-117.262
-117.568
-117.896
-118.252
-118.646
-119.088
-119.588
-120.162
-120.825
-121.595
-122.493
-123.545
-124.779
-126.235
-127.961
-130.022
-132.55
-135.634
-138.119
-139.728
-141.479
-143.483
-145.625
-147.888
-150.263
-152.704
-155.231
-157.737
-160.295
-162.732
-165.126
-167.342
-169.331
-170.969
-172.577
-172.643
-174.755
-171.378
-176.917
-167.128
-187.293
-166.586
-242.596
-51.9967
-67.1926
-75.0723
-79.4987
-83.3072
-86.6092
-89.3135
-91.6075
-93.6323
-95.42
-97.0183
-98.4543
-99.7614
-100.952
-102.049
-103.059
-103.998
-104.871
-105.687
-106.452
-107.17
-107.846
-108.483
-109.085
-109.655
-110.195
-110.707
-111.194
-111.657
-112.098
-112.519
-112.92
-113.303
-113.669
-114.02
-114.355
-114.677
-114.987
-115.285
-115.575
-115.857
-116.135
-116.411
-116.688
-116.971
-117.262
-117.569
-117.897
-118.253
-118.647
-119.088
-119.589
-120.163
-120.826
-121.596
-122.495
-123.546
-124.78
-126.236
-127.962
-130.024
-132.552
-135.638
-138.123
-139.732
-141.483
-143.488
-145.631
-147.894
-150.269
-152.711
-155.239
-157.745
-160.303
-162.743
-165.136
-167.355
-169.342
-170.985
-172.592
-172.66
-174.774
-171.395
-176.901
-167.156
-186.657
-166.808
-232.303
-51.9932
-67.1797
-75.0677
-79.4968
-83.3063
-86.6087
-89.3132
-91.6073
-93.6322
-95.4199
-97.0183
-98.4543
-99.7615
-100.952
-102.049
-103.059
-103.998
-104.871
-105.687
-106.452
-107.17
-107.846
-108.483
-109.085
-109.655
-110.195
-110.707
-111.194
-111.658
-112.099
-112.519
-112.92
-113.304
-113.67
-114.02
-114.356
-114.677
-114.987
-115.286
-115.575
-115.858
-116.136
-116.412
-116.689
-116.971
-117.263
-117.57
-117.897
-118.254
-118.648
-119.089
-119.59
-120.164
-120.827
-121.597
-122.496
-123.548
-124.782
-126.238
-127.964
-130.026
-132.555
-135.641
-138.127
-139.736
-141.487
-143.493
-145.637
-147.9
-150.276
-152.719
-155.247
-157.754
-160.312
-162.754
-165.146
-167.37
-169.356
-171.004
-172.613
-172.686
-174.806
-171.436
-176.883
-167.246
-185.764
-167.068
-219.15
-51.994
-67.1664
-75.0623
-79.4946
-83.3052
-86.6081
-89.3129
-91.6071
-93.6321
-95.4199
-97.0183
-98.4544
-99.7615
-100.952
-102.049
-103.059
-103.998
-104.871
-105.688
-106.452
-107.17
-107.846
-108.483
-109.085
-109.655
-110.195
-110.708
-111.195
-111.658
-112.099
-112.52
-112.921
-113.304
-113.67
-114.02
-114.356
-114.678
-114.988
-115.286
-115.576
-115.859
-116.137
-116.413
-116.69
-116.972
-117.264
-117.57
-117.898
-118.255
-118.649
-119.09
-119.591
-120.165
-120.828
-121.599
-122.497
-123.549
-124.783
-126.239
-127.966
-130.028
-132.557
-135.644
-138.131
-139.74
-141.491
-143.497
-145.642
-147.906
-150.282
-152.726
-155.254
-157.763
-160.321
-162.766
-165.157
-167.386
-169.373
-171.027
-172.644
-172.724
-174.853
-171.511
-176.859
-167.424
-184.549
-167.245
-203.257
-51.999
-67.1529
-75.056
-79.4919
-83.3039
-86.6074
-89.3125
-91.6069
-93.632
-95.4199
-97.0183
-98.4544
-99.7616
-100.953
-102.049
-103.059
-103.998
-104.871
-105.688
-106.452
-107.171
-107.846
-108.484
-109.086
-109.656
-110.196
-110.708
-111.195
-111.658
-112.099
-112.52
-112.921
-113.304
-113.671
-114.021
-114.357
-114.678
-114.988
-115.287
-115.577
-115.859
-116.137
-116.413
-116.69
-116.973
-117.264
-117.571
-117.899
-118.256
-118.65
-119.091
-119.592
-120.167
-120.83
-121.6
-122.498
-123.55
-124.785
-126.241
-127.967
-130.029
-132.558
-135.646
-138.134
-139.743
-141.494
-143.501
-145.646
-147.91
-150.287
-152.731
-155.259
-157.77
-160.327
-162.776
-165.167
-167.403
-169.394
-171.054
-172.686
-172.776
-174.92
-171.635
-176.821
-167.726
-182.941
-167.095
-185.511
-52.0077
-67.1394
-75.0485
-79.4884
-83.3023
-86.6065
-89.3119
-91.6065
-93.6318
-95.4198
-97.0183
-98.4545
-99.7617
-100.953
-102.049
-103.059
-103.998
-104.871
-105.688
-106.453
-107.171
-107.847
-108.484
-109.086
-109.656
-110.196
-110.708
-111.195
-111.659
-112.1
-112.52
-112.922
-113.305
-113.671
-114.021
-114.357
-114.679
-114.989
-115.288
-115.577
-115.86
-116.138
-116.414
-116.691
-116.974
-117.265
-117.572
-117.9
-118.257
-118.651
-119.092
-119.594
-120.168
-120.831
-121.601
-122.5
-123.552
-124.786
-126.242
-127.968
-130.029
-132.557
-135.646
-138.135
-139.744
-141.495
-143.503
-145.648
-147.913
-150.289
-152.734
-155.262
-157.774
-160.33
-162.785
-165.175
-167.418
-169.417
-171.085
-172.741
-172.851
-175.01
-171.827
-176.761
-168.182
-180.89
-166.335
-167.514
-52.0193
-67.1265
-75.04
-79.484
-83.3001
-86.6053
-89.3112
-91.6061
-93.6315
-95.4196
-97.0182
-98.4545
-99.7618
-100.953
-102.049
-103.06
-103.998
-104.872
-105.688
-106.453
-107.171
-107.847
-108.484
-109.086
-109.656
-110.196
-110.709
-111.196
-111.659
-112.1
-112.521
-112.922
-113.305
-113.672
-114.022
-114.358
-114.68
-114.989
-115.288
-115.578
-115.861
-116.139
-116.415
-116.692
-116.974
-117.266
-117.573
-117.901
-118.258
-118.652
-119.093
-119.594
-120.169
-120.832
-121.602
-122.5
-123.552
-124.786
-126.242
-127.967
-130.028
-132.554
-135.642
-138.133
-139.741
-141.492
-143.5
-145.646
-147.91
-150.286
-152.731
-155.257
-157.773
-160.326
-162.787
-165.177
-167.429
-169.442
-171.117
-172.812
-172.948
-175.132
-172.109
-176.677
-168.836
-178.397
-165.012
-151.186
-52.0333
-67.1139
-75.0304
-79.4785
-83.2972
-86.6037
-89.3102
-91.6055
-93.6311
-95.4194
-97.0181
-98.4545
-99.7618
-100.953
-102.049
-103.06
-103.999
-104.872
-105.689
-106.453
-107.171
-107.847
-108.485
-109.087
-109.657
-110.197
-110.709
-111.196
-111.66
-112.101
-112.521
-112.923
-113.306
-113.672
-114.023
-114.358
-114.68
-114.99
-115.289
-115.579
-115.861
-116.14
-116.416
-116.693
-116.975
-117.267
-117.574
-117.902
-118.259
-118.653
-119.094
-119.595
-120.169
-120.832
-121.602
-122.5
-123.552
-124.785
-126.24
-127.964
-130.024
-132.548
-135.633
-138.124
-139.732
-141.482
-143.491
-145.637
-147.9
-150.274
-152.719
-155.241
-157.758
-160.307
-162.774
-165.165
-167.428
-169.464
-171.151
-172.906
-173.092
-175.294
-172.53
-176.557
-169.707
-175.565
-163.51
-138.348
-52.0492
-67.1012
-75.0202
-79.4716
-83.2934
-86.6015
-89.3088
-91.6046
-93.6305
-95.419
-97.0179
-98.4544
-99.7618
-100.953
-102.049
-103.06
-103.999
-104.872
-105.689
-106.453
-107.172
-107.848
-108.485
-109.087
-109.657
-110.197
-110.71
-111.197
-111.66
-112.101
-112.522
-112.923
-113.306
-113.673
-114.023
-114.359
-114.681
-114.991
-115.29
-115.579
-115.862
-116.14
-116.416
-116.694
-116.976
-117.268
-117.575
-117.902
-118.259
-118.653
-119.094
-119.595
-120.169
-120.832
-121.601
-122.499
-123.55
-124.782
-126.236
-127.958
-130.015
-132.534
-135.612
-138.102
-139.711
-141.46
-143.467
-145.612
-147.872
-150.243
-152.686
-155.205
-157.725
-160.271
-162.75
-165.145
-167.422
-169.488
-171.187
-173.008
-173.262
-175.456
-173.055
-176.392
-170.681
-172.825
-162.185
-130.63
-52.0681
-67.0865
-75.0098
-79.4633
-83.2884
-86.5986
-89.307
-91.6033
-93.6297
-95.4185
-97.0175
-98.4542
-99.7617
-100.953
-102.049
-103.06
-103.999
-104.872
-105.689
-106.454
-107.172
-107.848
-108.485
-109.087
-109.657
-110.198
-110.71
-111.197
-111.66
-112.102
-112.522
-112.924
-113.307
-113.673
-114.024
-114.359
-114.682
-114.991
-115.29
-115.58
-115.863
-116.141
-116.417
-116.694
-116.976
-117.268
-117.575
-117.903
-118.259
-118.653
-119.094
-119.594
-120.167
-120.83
-121.598
-122.495
-123.545
-124.776
-126.227
-127.947
-129.999
-132.509
-135.573
-138.059
-139.672
-141.42
-143.427
-145.571
-147.83
-150.198
-152.639
-155.15
-157.669
-160.203
-162.684
-165.073
-167.356
-169.453
-171.175
-173.072
-173.463
-175.63
-173.734
-176.348
-171.763
-170.89
-161.512
-128.951
-52.0914
-67.0676
-74.9989
-79.4538
-83.2822
-86.5948
-89.3045
-91.6016
-93.6285
-95.4176
-97.017
-98.4538
-99.7615
-100.953
-102.049
-103.06
-103.999
-104.872
-105.689
-106.454
-107.172
-107.848
-108.486
-109.088
-109.658
-110.198
-110.71
-111.198
-111.661
-112.102
-112.523
-112.924
-113.307
-113.674
-114.024
-114.36
-114.682
-114.992
-115.29
-115.58
-115.863
-116.141
-116.417
-116.694
-116.976
-117.267
-117.574
-117.901
-118.257
-118.65
-119.091
-119.591
-120.163
-120.824
-121.592
-122.487
-123.535
-124.764
-126.213
-127.928
-129.974
-132.468
-135.504
-137.987
-139.614
-141.363
-143.363
-145.498
-147.745
-150.097
-152.524
-155.017
-157.53
-160.051
-162.543
-164.943
-167.258
-169.411
-171.204
-173.182
-173.79
-175.894
-174.607
-176.542
-173.053
-170.235
-162.284
-133.706
-52.1195
-67.0439
-74.9863
-79.4432
-83.2744
-86.5897
-89.3011
-91.5992
-93.6268
-95.4164
-97.0161
-98.4532
-99.761
-100.953
-102.049
-103.06
-103.999
-104.872
-105.689
-106.454
-107.173
-107.848
-108.486
-109.088
-109.658
-110.198
-110.711
-111.198
-111.661
-112.102
-112.523
-112.924
-113.307
-113.674
-114.024
-114.36
-114.682
-114.991
-115.29
-115.579
-115.862
-116.14
-116.415
-116.692
-116.974
-117.265
-117.571
-117.898
-118.254
-118.646
-119.087
-119.586
-120.157
-120.818
-121.584
-122.477
-123.523
-124.748
-126.192
-127.9
-129.934
-132.4
-135.375
-137.83
-139.477
-141.232
-143.225
-145.351
-147.592
-149.936
-152.362
-154.85
-157.371
-159.889
-162.402
-164.813
-167.167
-169.368
-171.263
-173.306
-174.226
-176.257
-175.714
-177.127
-174.82
-171.391
-165.388
-144.598
-52.1535
-67.0154
-74.9703
-79.431
-83.265
-86.5831
-89.2966
-91.596
-93.6245
-95.4147
-97.0148
-98.4521
-99.7603
-100.952
-102.049
-103.06
-103.999
-104.872
-105.689
-106.454
-107.172
-107.848
-108.486
-109.088
-109.658
-110.198
-110.71
-111.197
-111.661
-112.102
-112.522
-112.923
-113.307
-113.673
-114.023
-114.358
-114.68
-114.99
-115.288
-115.578
-115.86
-116.138
-116.413
-116.69
-116.972
-117.263
-117.568
-117.895
-118.249
-118.641
-119.079
-119.576
-120.145
-120.801
-121.564
-122.453
-123.493
-124.712
-126.148
-127.846
-129.866
-132.295
-135.192
-137.614
-139.3
-141.077
-143.069
-145.189
-147.422
-149.752
-152.169
-154.639
-157.161
-159.67
-162.206
-164.636
-167.056
-169.316
-171.377
-173.484
-174.829
-176.795
-177.145
-178.28
-177.4
-174.654
-171.502
-159.826
-52.195
-66.9818
-74.9498
-79.4163
-83.2546
-86.575
-89.2901
-91.5911
-93.6209
-95.4121
-97.0128
-98.4506
-99.759
-100.951
-102.048
-103.059
-103.998
-104.872
-105.689
-106.453
-107.172
-107.848
-108.485
-109.087
-109.657
-110.197
-110.71
-111.196
-111.66
-112.101
-112.521
-112.922
-113.305
-113.672
-114.022
-114.357
-114.679
-114.988
-115.287
-115.576
-115.857
-116.134
-116.409
-116.684
-116.964
-117.254
-117.557
-117.882
-118.234
-118.623
-119.059
-119.554
-120.12
-120.774
-121.534
-122.419
-123.455
-124.668
-126.097
-127.782
-129.784
-132.169
-134.982
-137.365
-139.083
-140.873
-142.855
-144.964
-147.186
-149.503
-151.913
-154.373
-156.9
-159.407
-161.974
-164.426
-166.93
-169.254
-171.534
-173.719
-175.59
-177.579
-178.954
-180.208
-181.048
-180.079
-180.45
-177.292
-52.2444
-66.9422
-74.9254
-79.3973
-83.2418
-86.5668
-89.2836
-91.5851
-93.6155
-95.4075
-97.009
-98.4476
-99.7566
-100.949
-102.046
-103.058
-103.997
-104.871
-105.688
-106.452
-107.171
-107.847
-108.484
-109.086
-109.656
-110.196
-110.709
-111.196
-111.659
-112.099
-112.52
-112.92
-113.303
-113.668
-114.017
-114.352
-114.673
-114.981
-115.278
-115.566
-115.847
-116.123
-116.397
-116.672
-116.951
-117.24
-117.543
-117.866
-118.218
-118.606
-119.04
-119.532
-120.095
-120.745
-121.499
-122.378
-123.406
-124.61
-126.026
-127.694
-129.67
-132.004
-134.724
-137.062
-138.808
-140.613
-142.587
-144.682
-146.889
-149.186
-151.583
-154.025
-156.554
-159.061
-161.664
-164.155
-166.765
-169.184
-171.722
-174.06
-176.487
-178.715
-181.118
-183.054
-185.685
-187.283
-191.108
-194.925
-52.3029
-66.8956
-74.8967
-79.3748
-83.2256
-86.5556
-89.2754
-91.5787
-93.6104
-95.4032
-97.0051
-98.4438
-99.753
-100.946
-102.043
-103.055
-103.994
-104.868
-105.685
-106.45
-107.169
-107.844
-108.481
-109.083
-109.653
-110.192
-110.704
-111.191
-111.653
-112.093
-112.513
-112.913
-113.295
-113.66
-114.009
-114.343
-114.664
-114.972
-115.269
-115.557
-115.838
-116.113
-116.386
-116.66
-116.938
-117.225
-117.526
-117.847
-118.196
-118.582
-119.012
-119.501
-120.06
-120.705
-121.453
-122.324
-123.343
-124.534
-125.934
-127.579
-129.52
-131.793
-134.411
-136.694
-138.458
-140.273
-142.232
-144.307
-146.495
-148.769
-151.149
-153.574
-156.104
-158.617
-161.256
-163.805
-166.524
-169.086
-171.884
-174.491
-177.445
-180.184
-183.534
-186.617
-190.904
-195.173
-201.825
-210.281
-52.3717
-66.841
-74.863
-79.3483
-83.2065
-86.5421
-89.265
-91.5702
-93.6033
-95.3971
-96.9997
-98.4389
-99.7484
-100.941
-102.039
-103.051
-103.99
-104.864
-105.681
-106.445
-107.164
-107.839
-108.476
-109.078
-109.647
-110.187
-110.698
-111.184
-111.647
-112.087
-112.506
-112.906
-113.288
-113.653
-114.001
-114.335
-114.655
-114.962
-115.258
-115.545
-115.825
-116.099
-116.371
-116.644
-116.921
-117.206
-117.506
-117.825
-118.171
-118.553
-118.98
-119.463
-120.016
-120.654
-121.393
-122.253
-123.258
-124.432
-125.809
-127.423
-129.318
-131.519
-134.027
-136.247
-138.014
-139.83
-141.769
-143.816
-145.975
-148.218
-150.572
-152.977
-155.496
-158.023
-160.691
-163.32
-166.144
-168.897
-171.937
-174.912
-178.334
-181.745
-185.907
-190.222
-195.813
-202.101
-210.473
-220.946
-52.4523
-66.7775
-74.8236
-79.3174
-83.184
-86.5262
-89.2529
-91.5602
-93.5948
-95.3897
-96.993
-98.4327
-99.7427
-100.936
-102.034
-103.045
-103.985
-104.859
-105.676
-106.44
-107.158
-107.834
-108.471
-109.072
-109.641
-110.18
-110.692
-111.177
-111.639
-112.079
-112.498
-112.898
-113.279
-113.643
-113.991
-114.324
-114.643
-114.95
-115.246
-115.532
-115.811
-116.084
-116.354
-116.625
-116.9
-117.184
-117.48
-117.796
-118.139
-118.516
-118.938
-119.415
-119.96
-120.588
-121.315
-122.16
-123.146
-124.296
-125.642
-127.213
-129.049
-131.164
-133.551
-135.693
-137.446
-139.25
-141.156
-143.163
-145.281
-147.483
-149.797
-152.175
-154.672
-157.208
-159.892
-162.602
-165.514
-168.465
-171.711
-175.053
-178.854
-182.868
-187.611
-192.79
-199.089
-206.241
-214.973
-225.195
-52.5458
-66.7045
-74.7781
-79.2818
-83.1578
-86.5078
-89.2387
-91.5485
-93.5849
-95.3811
-96.9853
-98.4256
-99.7361
-100.93
-102.028
-103.039
-103.979
-104.853
-105.67
-106.434
-107.152
-107.827
-108.464
-109.065
-109.634
-110.173
-110.684
-111.169
-111.631
-112.07
-112.489
-112.888
-113.269
-113.632
-113.979
-114.312
-114.63
-114.936
-115.231
-115.516
-115.793
-116.065
-116.334
-116.603
-116.876
-117.156
-117.45
-117.762
-118.1
-118.471
-118.885
-119.353
-119.887
-120.501
-121.211
-122.035
-122.995
-124.112
-125.416
-126.931
-128.689
-130.7
-132.953
-135.001
-136.716
-138.486
-140.343
-142.293
-144.349
-146.492
-148.745
-151.075
-153.526
-156.05
-158.722
-161.48
-164.438
-167.52
-170.891
-174.46
-178.455
-182.761
-187.684
-193.059
-199.275
-206.097
-213.927
-222.433
-52.6532
-66.6216
-74.7259
-79.2411
-83.1276
-86.4866
-89.2225
-91.5351
-93.5735
-95.3712
-96.9764
-98.4175
-99.7284
-100.922
-102.021
-103.033
-103.972
-104.846
-105.663
-106.427
-107.145
-107.82
-108.456
-109.057
-109.625
-110.164
-110.675
-111.16
-111.621
-112.06
-112.478
-112.876
-113.257
-113.619
-113.966
-114.298
-114.615
-114.92
-115.214
-115.497
-115.773
-116.043
-116.31
-116.577
-116.846
-117.123
-117.412
-117.719
-118.05
-118.413
-118.817
-119.273
-119.791
-120.387
-121.074
-121.869
-122.792
-123.864
-125.11
-126.549
-128.207
-130.093
-132.192
-134.123
-135.771
-137.478
-139.258
-141.125
-143.091
-145.144
-147.302
-149.547
-151.909
-154.367
-156.968
-159.687
-162.594
-165.659
-168.978
-172.509
-176.379
-180.515
-185.084
-189.941
-195.302
-200.909
-207.012
-213.189
-52.7746
-66.5293
-74.667
-79.1954
-83.0935
-86.4625
-89.204
-91.5198
-93.5606
-95.3599
-96.9663
-98.4082
-99.7197
-100.914
-102.013
-103.025
-103.965
-104.838
-105.655
-106.419
-107.136
-107.811
-108.447
-109.048
-109.616
-110.154
-110.665
-111.149
-111.61
-112.048
-112.466
-112.864
-113.243
-113.605
-113.951
-114.281
-114.598
-114.901
-115.194
-115.476
-115.75
-116.018
-116.282
-116.545
-116.811
-117.083
-117.366
-117.666
-117.988
-118.34
-118.73
-119.169
-119.667
-120.236
-120.891
-121.646
-122.52
-123.529
-124.696
-126.036
-127.567
-129.298
-131.214
-132.996
-134.539
-136.143
-137.808
-139.55
-141.381
-143.295
-145.302
-147.397
-149.597
-151.894
-154.315
-156.85
-159.536
-162.357
-165.36
-168.51
-171.868
-175.365
-179.079
-182.877
-186.873
-190.837
-194.935
-198.799
-52.9093
-66.4288
-74.602
-79.1452
-83.0555
-86.4358
-89.1835
-91.5028
-93.5463
-95.3474
-96.9551
-98.3979
-99.7101
-100.905
-102.004
-103.016
-103.956
-104.829
-105.646
-106.41
-107.127
-107.802
-108.438
-109.038
-109.606
-110.143
-110.653
-111.137
-111.598
-112.035
-112.452
-112.849
-113.228
-113.589
-113.934
-114.263
-114.578
-114.881
-115.171
-115.452
-115.723
-115.988
-116.249
-116.508
-116.769
-117.035
-117.31
-117.6
-117.91
-118.247
-118.618
-119.034
-119.503
-120.036
-120.647
-121.348
-122.153
-123.078
-124.138
-125.348
-126.716
-128.254
-129.948
-131.536
-132.925
-134.374
-135.87
-137.429
-139.06
-140.762
-142.537
-144.383
-146.309
-148.309
-150.393
-152.552
-154.799
-157.115
-159.516
-161.965
-164.481
-167.002
-169.561
-172.049
-174.533
-176.843
-179.095
-181.032
-53.0541
-66.3231
-74.5326
-79.0918
-83.0145
-86.4069
-89.1614
-91.4845
-93.5307
-95.3339
-96.943
-98.3867
-99.6997
-100.895
-101.994
-103.007
-103.947
-104.82
-105.637
-106.4
-107.117
-107.791
-108.427
-109.027
-109.594
-110.131
-110.641
-111.125
-111.584
-112.021
-112.437
-112.834
-113.211
-113.571
-113.915
-114.243
-114.557
-114.858
-115.146
-115.424
-115.693
-115.955
-116.212
-116.466
-116.72
-116.977
-117.242
-117.518
-117.812
-118.128
-118.475
-118.858
-119.288
-119.773
-120.323
-120.949
-121.662
-122.473
-123.393
-124.432
-125.593
-126.888
-128.302
-129.633
-130.809
-132.034
-133.288
-134.584
-135.928
-137.317
-138.749
-140.22
-141.73
-143.271
-144.842
-146.431
-148.034
-149.632
-151.222
-152.774
-154.29
-155.722
-157.084
-158.309
-159.436
-160.365
-161.176
-161.715
-53.2029
-66.2177
-74.4619
-79.0376
-82.9724
-86.3771
-89.1386
-91.4656
-93.5147
-95.3199
-96.9305
-98.3752
-99.689
-100.885
-101.984
-102.997
-103.937
-104.81
-105.627
-106.39
-107.107
-107.781
-108.416
-109.015
-109.582
-110.119
-110.628
-111.111
-111.57
-112.007
-112.422
-112.817
-113.194
-113.553
-113.895
-114.222
-114.535
-114.833
-115.12
-115.395
-115.661
-115.918
-116.169
-116.416
-116.662
-116.908
-117.159
-117.418
-117.69
-117.979
-118.291
-118.632
-119.009
-119.428
-119.896
-120.422
-121.012
-121.674
-122.411
-123.23
-124.129
-125.116
-126.177
-127.176
-128.066
-128.987
-129.912
-130.851
-131.807
-132.773
-133.744
-134.714
-135.676
-136.622
-137.543
-138.429
-139.27
-140.052
-140.769
-141.4
-141.944
-142.377
-142.708
-142.903
-142.989
-142.921
-142.749
-142.394
-53.3441
-66.1216
-74.396
-78.987
-82.9325
-86.3486
-89.1168
-91.4474
-93.4994
-95.3065
-96.9185
-98.3641
-99.6786
-100.875
-101.975
-102.987
-103.928
-104.801
-105.617
-106.38
-107.097
-107.77
-108.405
-109.004
-109.571
-110.107
-110.616
-111.098
-111.557
-111.993
-112.407
-112.802
-113.177
-113.535
-113.877
-114.202
-114.513
-114.809
-115.093
-115.365
-115.627
-115.879
-116.123
-116.362
-116.596
-116.828
-117.061
-117.297
-117.54
-117.793
-118.059
-118.343
-118.649
-118.981
-119.342
-119.737
-120.167
-120.635
-121.14
-121.681
-122.252
-122.855
-123.473
-124.048
-124.572
-125.103
-125.608
-126.096
-126.565
-127.01
-127.424
-127.801
-128.134
-128.416
-128.642
-128.803
-128.895
-128.91
-128.846
-128.695
-128.459
-128.129
-127.716
-127.208
-126.624
-125.949
-125.213
-124.382
-53.4455
-66.0575
-74.3509
-78.9517
-82.9039
-86.3281
-89.101
-91.4342
-93.4882
-95.2966
-96.9097
-98.3559
-99.671
-100.867
-101.968
-102.98
-103.921
-104.794
-105.61
-106.373
-107.09
-107.763
-108.398
-108.996
-109.563
-110.099
-110.607
-111.089
-111.547
-111.982
-112.396
-112.79
-113.165
-113.522
-113.862
-114.187
-114.496
-114.79
-115.072
-115.34
-115.598
-115.844
-116.081
-116.31
-116.532
-116.749
-116.961
-117.171
-117.381
-117.591
-117.806
-118.025
-118.25
-118.483
-118.724
-118.973
-119.226
-119.482
-119.735
-119.978
-120.2
-120.396
-120.546
-120.678
-120.823
-120.952
-121.034
-121.072
-121.07
-121.021
-120.921
-120.767
-120.554
-120.28
-119.942
-119.539
-119.069
-118.531
-117.927
-117.258
-116.528
-115.739
-114.898
-114.007
-113.078
-112.11
-111.121
-110.097
-53.4976
-66.03
-74.3307
-78.9345
-82.8894
-86.3173
-89.0927
-91.427
-93.4822
-95.2911
-96.905
-98.3513
-99.6669
-100.863
-101.964
-102.976
-103.917
-104.79
-105.606
-106.369
-107.086
-107.759
-108.393
-108.992
-109.558
-110.094
-110.602
-111.084
-111.542
-111.977
-112.39
-112.784
-113.158
-113.515
-113.854
-114.178
-114.485
-114.778
-115.057
-115.323
-115.577
-115.818
-116.048
-116.268
-116.478
-116.679
-116.871
-117.055
-117.231
-117.401
-117.563
-117.717
-117.864
-118
-118.123
-118.23
-118.314
-118.369
-118.384
-118.349
-118.247
-118.07
-117.796
-117.53
-117.337
-117.114
-116.828
-116.485
-116.088
-115.636
-115.125
-114.556
-113.929
-113.244
-112.504
-111.71
-110.865
-109.972
-109.036
-108.061
-107.054
-106.019
-104.964
-103.893
-102.816
-101.736
-100.664
-99.5943
-53.5028
-66.0375
-74.3345
-78.9346
-82.8884
-86.3161
-89.0915
-91.4258
-93.4811
-95.29
-96.904
-98.3502
-99.666
-100.862
-101.963
-102.975
-103.916
-104.789
-105.606
-106.368
-107.085
-107.758
-108.392
-108.991
-109.557
-110.093
-110.601
-111.083
-111.54
-111.975
-112.389
-112.782
-113.157
-113.513
-113.852
-114.175
-114.481
-114.773
-115.05
-115.314
-115.564
-115.8
-116.024
-116.235
-116.433
-116.619
-116.791
-116.95
-117.094
-117.222
-117.333
-117.425
-117.494
-117.536
-117.547
-117.519
-117.443
-117.31
-117.105
-116.814
-116.418
-115.905
-115.251
-114.634
-114.149
-113.626
-113.031
-112.372
-111.656
-110.883
-110.055
-109.173
-108.242
-107.264
-106.245
-105.188
-104.1
-102.985
-101.85
-100.7
-99.5422
-98.382
-97.2264
-96.0805
-94.9515
-93.8433
-92.7628
-91.7083
-53.461
-66.0798
-74.3623
-78.952
-82.9009
-86.3242
-89.0975
-91.4304
-93.485
-95.2931
-96.9069
-98.3526
-99.6684
-100.864
-101.965
-102.977
-103.918
-104.791
-105.608
-106.37
-107.087
-107.76
-108.395
-108.993
-109.559
-110.095
-110.604
-111.086
-111.543
-111.979
-112.392
-112.786
-113.16
-113.516
-113.855
-114.178
-114.484
-114.775
-115.051
-115.312
-115.559
-115.791
-116.009
-116.212
-116.4
-116.571
-116.724
-116.859
-116.972
-117.062
-117.125
-117.158
-117.155
-117.11
-117.017
-116.866
-116.646
-116.345
-115.946
-115.433
-114.784
-113.983
-113.009
-112.101
-111.375
-110.608
-109.765
-108.857
-107.893
-106.875
-105.808
-104.696
-103.545
-102.361
-101.15
-99.9183
-98.6724
-97.4189
-96.1642
-94.9146
-93.6766
-92.4557
-91.2579
-90.088
-88.9515
-87.852
-86.7937
-85.7759
-53.3718
-66.1582
-74.4143
-78.987
-82.9269
-86.3418
-89.1108
-91.4409
-93.4939
-95.3005
-96.9136
-98.3585
-99.6741
-100.869
-101.97
-102.982
-103.923
-104.796
-105.613
-106.375
-107.092
-107.765
-108.4
-108.999
-109.566
-110.102
-110.61
-111.093
-111.551
-111.986
-112.4
-112.794
-113.169
-113.526
-113.864
-114.187
-114.493
-114.784
-115.058
-115.318
-115.563
-115.792
-116.004
-116.2
-116.378
-116.537
-116.673
-116.786
-116.871
-116.926
-116.945
-116.924
-116.856
-116.733
-116.547
-116.288
-115.943
-115.499
-114.937
-114.239
-113.382
-112.347
-111.116
-109.975
-109.06
-108.103
-107.068
-105.97
-104.821
-103.623
-102.383
-101.108
-99.8052
-98.4813
-97.1434
-95.7988
-94.4545
-93.1173
-91.7939
-90.4903
-89.2127
-87.966
-86.7556
-85.5855
-84.46
-83.3819
-82.3544
-81.376
-53.2457
-66.2648
-74.4847
-79.0358
-82.9634
-86.3668
-89.1296
-91.456
-93.5067
-95.3113
-96.9234
-98.3673
-99.6824
-100.877
-101.978
-102.99
-103.931
-104.803
-105.62
-106.383
-107.1
-107.773
-108.408
-109.008
-109.574
-110.111
-110.62
-111.103
-111.561
-111.998
-112.412
-112.807
-113.182
-113.539
-113.878
-114.202
-114.508
-114.799
-115.073
-115.332
-115.575
-115.801
-116.01
-116.201
-116.371
-116.52
-116.643
-116.739
-116.802
-116.829
-116.813
-116.749
-116.63
-116.447
-116.19
-115.849
-115.411
-114.861
-114.183
-113.357
-112.358
-111.168
-109.765
-108.469
-107.428
-106.344
-105.183
-103.962
-102.692
-101.38
-100.031