/*--------------------------------*- C++ -*----------------------------------*\
| =========                 |                                                 |
| \\      /  F ield         | OpenFOAM: The Open Source CFD Toolbox           |
|  \\    /   O peration     | Version:  5.x                                   |
|   \\  /    A nd           | Web:      www.OpenFOAM.org                      |
|    \\/     M anipulation  |                                                 |
\*---------------------------------------------------------------------------*/
FoamFile
{
    version     2.0;
    format      ascii;
    class       volVectorField;
    location    "100";
    object      U;
}
// * * * * * * * * * * * * * * * * * * * * * * * * * * * * * * * * * * * * * //

dimensions      [0 1 -1 0 0 0 0];

internalField   nonuniform List<vector> 
20540
(
(44.741 -0.000547812 0)
(60.7852 0.00582455 0)
(44.5161 -0.00175623 0)
(60.7049 0.0167672 0)
(44.2236 -0.0031874 0)
(60.4261 0.0263848 0)
(43.896 -0.00483403 0)
(59.9328 0.0348747 0)
(43.5782 -0.00668482 0)
(59.2529 0.0429051 0)
(43.3267 -0.00871484 0)
(58.4283 0.0506599 0)
(43.2065 -0.0108941 0)
(57.4916 0.0579753 0)
(43.2784 -0.0131694 0)
(56.4608 0.0645736 0)
(43.5671 -0.0154549 0)
(55.3463 0.0700861 0)
(44.0524 -0.0176595 0)
(54.1597 0.0740726 0)
(44.6965 -0.0196612 0)
(52.9221 0.0760612 0)
(45.4661 -0.0212863 0)
(51.6727 0.0756343 0)
(46.3318 -0.0223299 0)
(50.4787 0.0726122 0)
(47.2551 -0.0226042 0)
(49.4441 0.067388 0)
(48.1631 -0.0219825 0)
(48.71 0.0612126 0)
(48.8857 -0.0205253 0)
(48.427 0.0560025 0)
(49.1211 -0.0194352 0)
(48.6652 0.0541843 0)
(49.0027 -0.0194302 0)
(48.9288 0.0545949 0)
(48.9849 -0.0189796 0)
(48.928 0.0538049 0)
(48.995 -0.0185085 0)
(48.9171 0.0526783 0)
(48.9955 -0.0179492 0)
(48.9191 0.0513141 0)
(48.9954 -0.0172745 0)
(48.9212 0.0496486 0)
(48.9955 -0.0164835 0)
(48.9234 0.0476604 0)
(48.9957 -0.0155404 0)
(48.926 0.045272 0)
(48.9959 -0.0144313 0)
(48.9289 0.0424122 0)
(48.9961 -0.0131342 0)
(48.9321 0.0389987 0)
(48.9963 -0.0116258 0)
(48.9357 0.0349304 0)
(48.9965 -0.00988008 0)
(48.9396 0.030087 0)
(48.9967 -0.00787484 0)
(48.9435 0.0243304 0)
(48.9969 -0.00557584 0)
(48.9471 0.0174724 0)
(48.997 -0.00321593 0)
(48.9497 0.0101967 0)
(48.9971 -0.000977668 0)
(48.9509 0.00313351 0)
(48.9971 0.00123891 0)
(48.9509 -0.00391343 0)
(48.997 0.00347846 0)
(48.9497 -0.010998 0)
(48.9968 0.00580205 0)
(48.9472 -0.0182029 0)
(48.9966 0.00803714 0)
(48.9438 -0.02493 0)
(48.9964 0.00999541 0)
(48.94 -0.030625 0)
(48.9962 0.0117077 0)
(48.9363 -0.0354531 0)
(48.996 0.0131954 0)
(48.9328 -0.0395393 0)
(48.9958 0.0144822 0)
(48.9296 -0.0429931 0)
(48.9956 0.0155886 0)
(48.9268 -0.045907 0)
(48.9954 0.016535 0)
(48.9242 -0.0483596 0)
(48.9953 0.0173384 0)
(48.922 -0.0504167 0)
(48.9952 0.0180202 0)
(48.9201 -0.0521433 0)
(48.9955 0.0185959 0)
(48.9178 -0.0535797 0)
(48.9914 0.0190686 0)
(48.9197 -0.0547695 0)
(48.9846 0.0195441 0)
(48.9389 -0.0557723 0)
(49.0642 0.0197175 0)
(48.8384 -0.0559319 0)
(49.085 0.020104 0)
(48.5025 -0.0560433 0)
(48.616 0.0215213 0)
(48.4899 -0.0594891 0)
(47.8153 0.0225902 0)
(48.9689 -0.0651507 0)
(46.9196 0.0228175 0)
(49.8204 -0.0709228 0)
(46.0382 0.0222458 0)
(50.9054 -0.0752417 0)
(45.2234 0.0210078 0)
(52.1044 -0.0772362 0)
(44.5074 0.0192848 0)
(53.3338 -0.0767866 0)
(43.9209 0.0172572 0)
(54.5407 -0.0741586 0)
(43.5019 0.0150693 0)
(55.6943 -0.0697617 0)
(43.2887 0.0128189 0)
(56.7772 -0.0640255 0)
(43.2918 0.0105947 0)
(57.7777 -0.0573409 0)
(43.4728 0.00847154 0)
(58.6812 -0.0500284 0)
(43.7681 0.00649231 0)
(59.4618 -0.0423234 0)
(44.1158 0.0046903 0)
(60.08 -0.0343567 0)
(44.4632 0.00309056 0)
(60.4967 -0.0259217 0)
(44.7681 0.00170277 0)
(60.7 -0.016421 0)
(45.0001 0.000531082 0)
(60.7239 -0.00570603 0)
(6.16925 0.00665759 0)
(4.35709 2.22031e-05 0)
(3.87224 6.69284e-06 0)
(3.64461 4.00454e-06 0)
(3.52239 2.63381e-06 0)
(3.44863 1.921e-06 0)
(3.40075 1.4579e-06 0)
(3.36911 1.12848e-06 0)
(3.34815 8.87743e-07 0)
(3.3343 7.0605e-07 0)
(3.32542 5.62885e-07 0)
(3.32014 4.48943e-07 0)
(3.31753 3.53982e-07 0)
(3.31694 2.73502e-07 0)
(3.31789 2.03083e-07 0)
(3.32001 1.42236e-07 0)
(3.32305 8.88755e-08 0)
(3.3268 4.28154e-08 0)
(3.33112 2.57747e-09 0)
(3.3359 -3.23058e-08 0)
(3.34108 -6.32898e-08 0)
(3.34659 -9.12662e-08 0)
(3.35237 -1.16769e-07 0)
(3.35837 -1.40233e-07 0)
(3.36456 -1.61892e-07 0)
(3.37092 -1.82667e-07 0)
(3.37741 -2.02563e-07 0)
(3.38401 -2.2205e-07 0)
(3.3907 -2.40507e-07 0)
(3.39747 -2.58534e-07 0)
(3.40433 -2.75829e-07 0)
(3.41126 -2.92967e-07 0)
(3.41828 -3.09797e-07 0)
(3.42538 -3.27286e-07 0)
(3.43257 -3.45644e-07 0)
(3.43987 -3.65444e-07 0)
(3.44726 -3.86817e-07 0)
(3.45474 -4.10168e-07 0)
(3.46233 -4.35991e-07 0)
(3.47002 -4.64759e-07 0)
(3.4778 -4.96674e-07 0)
(3.48569 -5.31374e-07 0)
(3.49369 -5.69505e-07 0)
(3.50182 -6.12135e-07 0)
(3.51011 -6.60831e-07 0)
(3.5186 -7.16229e-07 0)
(3.52731 -7.80185e-07 0)
(3.5363 -8.54593e-07 0)
(3.54564 -9.43768e-07 0)
(3.5554 -1.05048e-06 0)
(3.56566 -1.17982e-06 0)
(3.57652 -1.33552e-06 0)
(3.58807 -1.52626e-06 0)
(3.60046 -1.75383e-06 0)
(3.61377 -2.05464e-06 0)
(3.62829 -2.38921e-06 0)
(3.64401 -2.8782e-06 0)
(3.66156 -3.43765e-06 0)
(3.68073 -4.24295e-06 0)
(3.70264 -5.2206e-06 0)
(3.72734 -7.01586e-06 0)
(3.75628 -7.56737e-06 0)
(3.78851 -4.62834e-06 0)
(3.81148 -3.02856e-06 0)
(3.82857 -1.09122e-05 0)
(3.84948 -1.38865e-05 0)
(3.87171 -1.44299e-05 0)
(3.89358 -1.4924e-05 0)
(3.91541 -1.66887e-05 0)
(3.93688 -1.6349e-05 0)
(3.95862 -1.74291e-05 0)
(3.97988 -1.41685e-05 0)
(4.00169 -1.53734e-05 0)
(4.02424 -8.70939e-06 0)
(4.04367 -1.01487e-05 0)
(4.07138 -4.62632e-06 0)
(4.07889 5.40422e-07 0)
(4.117 -4.02425e-06 0)
(4.09867 6.96487e-06 0)
(4.1387 1.37132e-05 0)
(4.09993 -5.25922e-05 0)
(4.08229 8.23671e-05 0)
(4.09186 -0.000401134 0)
(3.86144 0.000122485 0)
(4.15088 -0.00216114 0)
(3.43152 -0.00138865 0)
(4.79786 -0.0174138 0)
(4.37528 0.154279 0)
(18.2533 0.0206064 0)
(13.6369 0.00119901 0)
(12.1694 0.000415649 0)
(11.4769 0.000213295 0)
(11.102 0.000124853 0)
(10.8748 8.09686e-05 0)
(10.7268 5.53655e-05 0)
(10.6286 3.84553e-05 0)
(10.5631 2.68262e-05 0)
(10.5196 1.85721e-05 0)
(10.4915 1.24295e-05 0)
(10.4745 7.68054e-06 0)
(10.4658 3.89791e-06 0)
(10.4634 8.24187e-07 0)
(10.4657 -1.7179e-06 0)
(10.4718 -3.85044e-06 0)
(10.4807 -5.67554e-06 0)
(10.4918 -7.26711e-06 0)
(10.5047 -8.69487e-06 0)
(10.5191 -1.00122e-05 0)
(10.5347 -1.12486e-05 0)
(10.5513 -1.24114e-05 0)
(10.5688 -1.35135e-05 0)
(10.5869 -1.45767e-05 0)
(10.6057 -1.56158e-05 0)
(10.6249 -1.66346e-05 0)
(10.6446 -1.76307e-05 0)
(10.6646 -1.86122e-05 0)
(10.6849 -1.95983e-05 0)
(10.7054 -2.06078e-05 0)
(10.7262 -2.16506e-05 0)
(10.7472 -2.27426e-05 0)
(10.7685 -2.38993e-05 0)
(10.7901 -2.51274e-05 0)
(10.8119 -2.64277e-05 0)
(10.834 -2.78023e-05 0)
(10.8563 -2.92522e-05 0)
(10.879 -3.07793e-05 0)
(10.902 -3.23836e-05 0)
(10.9253 -3.40633e-05 0)
(10.9488 -3.5829e-05 0)
(10.9727 -3.77149e-05 0)
(10.9969 -3.97717e-05 0)
(11.0214 -4.20427e-05 0)
(11.0465 -4.45726e-05 0)
(11.072 -4.74265e-05 0)
(11.0983 -5.06969e-05 0)
(11.1253 -5.44889e-05 0)
(11.1533 -5.89177e-05 0)
(11.1825 -6.40986e-05 0)
(11.2132 -7.01863e-05 0)
(11.2455 -7.73161e-05 0)
(11.2798 -8.57843e-05 0)
(11.3165 -9.56027e-05 0)
(11.3557 -0.000107597 0)
(11.3984 -0.000121333 0)
(11.4445 -0.00013876 0)
(11.4957 -0.000159015 0)
(11.5513 -0.000185003 0)
(11.6146 -0.000217536 0)
(11.6853 -0.000261188 0)
(11.7677 -0.000312181 0)
(11.8616 -0.000313535 0)
(11.9321 -0.000284777 0)
(11.9836 -0.000332407 0)
(12.0424 -0.0003892 0)
(12.1051 -0.000416022 0)
(12.1673 -0.000433649 0)
(12.2294 -0.000453871 0)
(12.2905 -0.000471726 0)
(12.3522 -0.000496193 0)
(12.4129 -0.000510738 0)
(12.4747 -0.000561756 0)
(12.5403 -0.000541542 0)
(12.5955 -0.000659632 0)
(12.6789 -0.000507951 0)
(12.7013 -0.000725527 0)
(12.8201 -0.00032009 0)
(12.7729 -0.000519853 0)
(12.9059 9.00864e-05 0)
(12.8077 0.000442668 0)
(12.7918 0.000740934 0)
(12.8236 0.00256924 0)
(12.2403 0.00103756 0)
(12.9291 0.00246259 0)
(11.0609 -0.00291964 0)
(13.6749 -0.0821002 0)
(13.3537 0.178918 0)
(27.3393 0.0347429 0)
(21.5549 0.00382641 0)
(19.6547 0.0013981 0)
(18.7398 0.000729224 0)
(18.2345 0.000431648 0)
(17.9242 0.000281304 0)
(17.7202 0.000192807 0)
(17.5837 0.000133987 0)
(17.4923 9.33418e-05 0)
(17.4312 6.44162e-05 0)
(17.3914 4.28707e-05 0)
(17.3672 2.61988e-05 0)
(17.3547 1.29245e-05 0)
(17.3509 2.14607e-06 0)
(17.3539 -6.75221e-06 0)
(17.362 -1.42071e-05 0)
(17.3742 -2.0576e-05 0)
(17.3896 -2.6124e-05 0)
(17.4075 -3.10958e-05 0)
(17.4274 -3.56818e-05 0)
(17.4491 -3.99856e-05 0)
(17.4722 -4.40301e-05 0)
(17.4965 -4.78605e-05 0)
(17.5218 -5.15515e-05 0)
(17.5479 -5.51574e-05 0)
(17.5748 -5.86886e-05 0)
(17.6022 -6.21378e-05 0)
(17.63 -6.55295e-05 0)
(17.6583 -6.89356e-05 0)
(17.6869 -7.24199e-05 0)
(17.7158 -7.60193e-05 0)
(17.7451 -7.97871e-05 0)
(17.7747 -8.37788e-05 0)
(17.8046 -8.80157e-05 0)
(17.835 -9.24988e-05 0)
(17.8657 -9.72323e-05 0)
(17.8968 -0.000102218 0)
(17.9283 -0.000107462 0)
(17.9602 -0.00011296 0)
(17.9924 -0.000118704 0)
(18.0251 -0.000124724 0)
(18.0582 -0.000131139 0)
(18.0917 -0.000138121 0)
(18.1257 -0.000145815 0)
(18.1604 -0.000154365 0)
(18.1957 -0.000163988 0)
(18.232 -0.000174993 0)
(18.2693 -0.000187728 0)
(18.3079 -0.000202566 0)
(18.3481 -0.000219881 0)
(18.3902 -0.000240169 0)
(18.4345 -0.000263855 0)
(18.4815 -0.000291904 0)
(18.5316 -0.000324304 0)
(18.5851 -0.000363706 0)
(18.6431 -0.00040872 0)
(18.7055 -0.000465444 0)
(18.7747 -0.000531189 0)
(18.8496 -0.000614738 0)
(18.9345 -0.00071903 0)
(19.0288 -0.000856162 0)
(19.1383 -0.00102849 0)
(19.264 -0.00106396 0)
(19.3619 -0.000982558 0)
(19.4334 -0.00108854 0)
(19.5129 -0.00125671 0)
(19.5979 -0.0013523 0)
(19.6832 -0.00141481 0)
(19.7686 -0.00147786 0)
(19.8532 -0.00154091 0)
(19.9387 -0.00162228 0)
(20.0236 -0.00168449 0)
(20.1095 -0.00186076 0)
(20.2022 -0.00181659 0)
(20.2788 -0.00223244 0)
(20.3976 -0.0017514 0)
(20.4306 -0.00252934 0)
(20.5993 -0.00125113 0)
(20.5447 -0.00189354 0)
(20.732 -0.000273997 0)
(20.6241 0.00150862 0)
(20.6119 0.00117585 0)
(20.6861 0.00993199 0)
(19.9435 0.00256495 0)
(20.7893 0.0168838 0)
(18.5024 0.0104054 0)
(21.0308 -0.189442 0)
(21.0289 0.343101 0)
(32.7395 0.0480085 0)
(26.259 0.00726058 0)
(24.1942 0.00269484 0)
(23.2447 0.00139461 0)
(22.7295 0.000825337 0)
(22.4155 0.00053807 0)
(22.2099 0.000368583 0)
(22.0732 0.000255462 0)
(21.9824 0.000177063 0)
(21.9225 0.000121175 0)
(21.8843 7.94858e-05 0)
(21.862 4.71781e-05 0)
(21.8514 2.14273e-05 0)
(21.8498 4.94856e-07 0)
(21.8551 -1.68088e-05 0)
(21.8657 -3.13373e-05 0)
(21.8804 -4.37848e-05 0)
(21.8984 -5.46689e-05 0)
(21.9189 -6.44681e-05 0)
(21.9417 -7.35526e-05 0)
(21.9663 -8.21103e-05 0)
(21.9924 -9.01733e-05 0)
(22.0198 -9.78291e-05 0)
(22.0482 -0.000105228 0)
(22.0776 -0.000112475 0)
(22.1077 -0.000119586 0)
(22.1385 -0.000126546 0)
(22.1698 -0.000133409 0)
(22.2016 -0.000140325 0)
(22.2338 -0.000147419 0)
(22.2664 -0.000154765 0)
(22.2994 -0.000162473 0)
(22.3328 -0.000170653 0)
(22.3667 -0.000179334 0)
(22.4011 -0.000188514 0)
(22.4359 -0.000198199 0)
(22.4712 -0.000208394 0)
(22.507 -0.000219108 0)
(22.5433 -0.000230333 0)
(22.5801 -0.000242051 0)
(22.6174 -0.000254334 0)
(22.6551 -0.000267426 0)
(22.6934 -0.000281671 0)
(22.7323 -0.000297349 0)
(22.772 -0.000314747 0)
(22.8126 -0.0003343 0)
(22.8541 -0.000356604 0)
(22.897 -0.000382336 0)
(22.9413 -0.000412205 0)
(22.9875 -0.000446931 0)
(23.0357 -0.000487471 0)
(23.0865 -0.000534643 0)
(23.1402 -0.000590306 0)
(23.1973 -0.000654428 0)
(23.2582 -0.000732129 0)
(23.3241 -0.000820745 0)
(23.3948 -0.000931905 0)
(23.4728 -0.00106045 0)
(23.5572 -0.00122289 0)
(23.6524 -0.00142483 0)
(23.7578 -0.00168957 0)
(23.8801 -0.00202461 0)
(24.0186 -0.00214238 0)
(24.1342 -0.00204062 0)
(24.2212 -0.00222839 0)
(24.3171 -0.00255802 0)
(24.4202 -0.00277444 0)
(24.5254 -0.00292438 0)
(24.6319 -0.00306917 0)
(24.7386 -0.00322005 0)
(24.8471 -0.00340481 0)
(24.9563 -0.00355925 0)
(25.0663 -0.00393405 0)
(25.1859 -0.00387405 0)
(25.2851 -0.00473705 0)
(25.4355 -0.00379985 0)
(25.4858 -0.00541377 0)
(25.6926 -0.00295135 0)
(25.6501 -0.0042266 0)
(25.8752 -0.00145207 0)
(25.7885 0.00255528 0)
(25.7915 0.000687111 0)
(25.9165 0.0197295 0)
(25.1489 0.00398213 0)
(26.0301 0.0385876 0)
(23.7674 0.0269343 0)
(25.8648 -0.25824 0)
(25.8658 0.419137 0)
(36.3621 0.062336 0)
(29.3224 0.0115326 0)
(27.0686 0.00425619 0)
(26.0777 0.00216805 0)
(25.553 0.00127614 0)
(25.2368 0.000830077 0)
(25.0315 0.000567446 0)
(24.896 0.000391948 0)
(24.807 0.000270196 0)
(24.7491 0.000183356 0)
(24.7131 0.000118523 0)
(24.693 6.82226e-05 0)
(24.6848 2.80809e-05 0)
(24.6856 -4.60446e-06 0)
(24.6932 -3.16873e-05 0)
(24.7062 -5.45033e-05 0)
(24.7234 -7.41324e-05 0)
(24.744 -9.13807e-05 0)
(24.7672 -0.000106998 0)
(24.7927 -0.000121558 0)
(24.8201 -0.000135331 0)
(24.8491 -0.000148351 0)
(24.8796 -0.000160755 0)
(24.9111 -0.000172784 0)
(24.9437 -0.000184606 0)
(24.9771 -0.000196236 0)
(25.0112 -0.000207654 0)
(25.046 -0.000218956 0)
(25.0813 -0.000230391 0)
(25.1171 -0.000242155 0)
(25.1535 -0.000254368 0)
(25.1903 -0.000267212 0)
(25.2276 -0.000280861 0)
(25.2655 -0.000295349 0)
(25.304 -0.00031066 0)
(25.3431 -0.000326806 0)
(25.3828 -0.000343799 0)
(25.423 -0.000361657 0)
(25.4639 -0.000380364 0)
(25.5053 -0.000399899 0)
(25.5474 -0.000420395 0)
(25.59 -0.000442264 0)
(25.6333 -0.000466049 0)
(25.6774 -0.0004922 0)
(25.7224 -0.000521186 0)
(25.7683 -0.000553711 0)
(25.8155 -0.000590718 0)
(25.8641 -0.000633266 0)
(25.9145 -0.000682464 0)
(25.9668 -0.000739453 0)
(26.0215 -0.000805751 0)
(26.0789 -0.00088265 0)
(26.1395 -0.000973101 0)
(26.2039 -0.00107707 0)
(26.2723 -0.00120267 0)
(26.3461 -0.00134575 0)
(26.425 -0.00152457 0)
(26.5119 -0.00173098 0)
(26.6056 -0.00199088 0)
(26.7107 -0.00231235 0)
(26.8265 -0.00273517 0)
(26.9607 -0.00326516 0)
(27.1107 -0.00352428 0)
(27.2445 -0.0034671 0)
(27.3483 -0.00377815 0)
(27.4614 -0.00432437 0)
(27.5835 -0.00472292 0)
(27.7094 -0.00501674 0)
(27.8379 -0.00529883 0)
(27.9681 -0.00559442 0)
(28.101 -0.00594604 0)
(28.2361 -0.00624633 0)
(28.3714 -0.00690809 0)
(28.5198 -0.00684486 0)
(28.6428 -0.00831249 0)
(28.8264 -0.00681696 0)
(28.8966 -0.00952442 0)
(29.1415 -0.00566335 0)
(29.1186 -0.00772903 0)
(29.3787 -0.0037962 0)
(29.3274 0.00301073 0)
(29.3489 -0.00112492 0)
(29.5351 0.0301793 0)
(28.7879 0.0051221 0)
(29.6813 0.0621414 0)
(27.5969 0.0487772 0)
(29.2546 -0.315707 0)
(29.296 0.535118 0)
(39.1911 0.078233 0)
(31.7645 0.0171964 0)
(29.2991 0.00631885 0)
(28.244 0.00315387 0)
(27.6951 0.00183945 0)
(27.3673 0.00119127 0)
(27.1553 0.000811688 0)
(27.0159 0.000558291 0)
(26.9248 0.000382565 0)
(26.8661 0.000257269 0)
(26.83 0.000163701 0)
(26.8103 9.10496e-05 0)
(26.803 3.30043e-05 0)
(26.805 -1.43494e-05 0)
(26.8142 -5.37016e-05 0)
(26.829 -8.69897e-05 0)
(26.8482 -0.00011577 0)
(26.871 -0.000141202 0)
(26.8966 -0.000164372 0)
(26.9247 -0.000186098 0)
(26.9549 -0.000206746 0)
(26.9868 -0.000226336 0)
(27.0203 -0.00024507 0)
(27.055 -0.000263308 0)
(27.0909 -0.00028129 0)
(27.1277 -0.000299038 0)
(27.1654 -0.000316524 0)
(27.2038 -0.000333905 0)
(27.2428 -0.000351561 0)
(27.2825 -0.000369776 0)
(27.3227 -0.00038873 0)
(27.3636 -0.000408705 0)
(27.4051 -0.000429955 0)
(27.4472 -0.00045251 0)
(27.4901 -0.000476336 0)
(27.5336 -0.000501453 0)
(27.5778 -0.000527889 0)
(27.6228 -0.000555674 0)
(27.6684 -0.000584789 0)
(27.7148 -0.000615215 0)
(27.7618 -0.000647179 0)
(27.8096 -0.000681313 0)
(27.8582 -0.00071842 0)
(27.9077 -0.000759166 0)
(27.9582 -0.000804266 0)
(28.0098 -0.000854781 0)
(28.0629 -0.000912087 0)
(28.1175 -0.000977728 0)
(28.174 -0.00105332 0)
(28.2327 -0.00114053 0)
(28.294 -0.00124161 0)
(28.3582 -0.00135847 0)
(28.4259 -0.00149548 0)
(28.4976 -0.00165259 0)
(28.5736 -0.00184181 0)
(28.6554 -0.00205706 0)
(28.7426 -0.00232505 0)
(28.8382 -0.0026338 0)
(28.9409 -0.00302139 0)
(29.0558 -0.00349764 0)
(29.1815 -0.00412766 0)
(29.3271 -0.00490522 0)
(29.488 -0.00539785 0)
(29.6392 -0.00548653 0)
(29.7596 -0.00598982 0)
(29.8896 -0.00683591 0)
(30.0296 -0.00750764 0)
(30.175 -0.00803147 0)
(30.3244 -0.00853673 0)
(30.4768 -0.0090627 0)
(30.6326 -0.0096793 0)
(30.7925 -0.0102022 0)
(30.9514 -0.0112901 0)
(31.1274 -0.0112376 0)
(31.2725 -0.0135502 0)
(31.4878 -0.0113623 0)
(31.578 -0.0155129 0)
(31.856 -0.0100385 0)
(31.8606 -0.0130169 0)
(32.1427 -0.00811325 0)
(32.1461 0.00236468 0)
(32.1707 -0.00512558 0)
(32.4375 0.0406433 0)
(31.7259 0.00568845 0)
(32.6227 0.0849251 0)
(30.814 0.0804932 0)
(32.0694 -0.374293 0)
(32.2036 0.671429 0)
(41.599 0.0954245 0)
(33.9623 0.0244843 0)
(31.2738 0.00905496 0)
(30.1352 0.00443844 0)
(29.5499 0.00256465 0)
(29.2021 0.00165381 0)
(28.9774 0.00112375 0)
(28.8297 0.000770491 0)
(28.733 0.000525602 0)
(28.6705 0.000351013 0)
(28.632 0.000220584 0)
(28.611 0.000119226 0)
(28.6031 3.81386e-05 0)
(28.6052 -2.81589e-05 0)
(28.615 -8.34391e-05 0)
(28.6308 -0.000130409 0)
(28.6514 -0.000171226 0)
(28.6758 -0.000207491 0)
(28.7035 -0.000240712 0)
(28.7339 -0.000272015 0)
(28.7665 -0.000301879 0)
(28.8012 -0.000330311 0)
(28.8376 -0.000357593 0)
(28.8754 -0.000384235 0)
(28.9145 -0.000410576 0)
(28.9547 -0.000436648 0)
(28.9959 -0.000462421 0)
(29.0379 -0.000488135 0)
(29.0807 -0.000514338 0)
(29.1243 -0.000541426 0)
(29.1685 -0.000569656 0)
(29.2135 -0.000599442 0)
(29.2592 -0.000631142 0)
(29.3057 -0.000664783 0)
(29.3529 -0.000700307 0)
(29.401 -0.000737745 0)
(29.4499 -0.000777152 0)
(29.4996 -0.000818583 0)
(29.5502 -0.000862022 0)
(29.6015 -0.000907461 0)
(29.6537 -0.000955255 0)
(29.7067 -0.00100632 0)
(29.7606 -0.00106178 0)
(29.8156 -0.00112259 0)
(29.8717 -0.00118978 0)
(29.9292 -0.00126486 0)
(29.9881 -0.00134978 0)
(30.0488 -0.00144666 0)
(30.1116 -0.00155775 0)
(30.1767 -0.00168543 0)
(30.2446 -0.00183288 0)
(30.3157 -0.00200275 0)
(30.3904 -0.00220125 0)
(30.4693 -0.00242832 0)
(30.5529 -0.00270091 0)
(30.6425 -0.00301046 0)
(30.7378 -0.00339436 0)
(30.8418 -0.00383562 0)
(30.9533 -0.00438814 0)
(31.0774 -0.0050614 0)
(31.2123 -0.00595817 0)
(31.3685 -0.00704803 0)
(31.5392 -0.00789685 0)
(31.7068 -0.00827331 0)
(31.8433 -0.00906053 0)
(31.9893 -0.010303 0)
(32.1461 -0.0113581 0)
(32.3096 -0.0122223 0)
(32.4783 -0.0130639 0)
(32.6515 -0.0139293 0)
(32.8285 -0.0149406 0)
(33.0116 -0.0157768 0)
(33.1921 -0.0174744 0)
(33.3944 -0.0174452 0)
(33.5598 -0.0208978 0)
(33.8038 -0.0179036 0)
(33.9158 -0.0238324 0)
(34.2181 -0.0167224 0)
(34.261 -0.020487 0)
(34.5463 -0.0152951 0)
(34.6257 8.11509e-05 0)
(34.6323 -0.0121915 0)
(34.9962 0.0495171 0)
(34.3256 0.00564374 0)
(35.2153 0.102083 0)
(33.7249 0.122004 0)
(34.673 -0.434069 0)
(34.7823 0.778693 0)
(43.7305 0.113667 0)
(36.0692 0.0336199 0)
(33.154 0.0126606 0)
(31.9139 0.00612281 0)
(31.2803 0.00350879 0)
(30.905 0.00225468 0)
(30.6622 0.00152968 0)
(30.5018 0.00104747 0)
(30.3962 0.000713211 0)
(30.3273 0.000474807 0)
(30.2843 0.000296576 0)
(30.2603 0.000157919 0)
(30.2504 4.68226e-05 0)
(30.2513 -4.42357e-05 0)
(30.2606 -0.000120441 0)
(30.2766 -0.000185492 0)
(30.2979 -0.000242304 0)
(30.3236 -0.000293033 0)
(30.3528 -0.000339713 0)
(30.3851 -0.000383857 0)
(30.42 -0.000426094 0)
(30.4572 -0.000466422 0)
(30.4963 -0.000505226 0)
(30.5371 -0.000543205 0)
(30.5794 -0.00058083 0)
(30.6229 -0.000618159 0)
(30.6676 -0.000655167 0)
(30.7133 -0.000692203 0)
(30.7599 -0.000730022 0)
(30.8073 -0.000769165 0)
(30.8556 -0.000809988 0)
(30.9047 -0.000853069 0)
(30.9547 -0.000898908 0)
(31.0056 -0.000947536 0)
(31.0574 -0.000998868 0)
(31.1102 -0.00105296 0)
(31.1638 -0.00110989 0)
(31.2184 -0.00116978 0)
(31.2739 -0.00123263 0)
(31.3303 -0.00129844 0)
(31.3877 -0.00136774 0)
(31.4461 -0.00144179 0)
(31.5056 -0.00152212 0)
(31.5662 -0.00161004 0)
(31.628 -0.001707 0)
(31.6914 -0.00181507 0)
(31.7564 -0.00193688 0)
(31.8233 -0.00207529 0)
(31.8925 -0.00223338 0)
(31.9641 -0.00241433 0)
(32.0387 -0.00262255 0)
(32.1167 -0.00286161 0)
(32.1984 -0.00314009 0)
(32.2847 -0.00345779 0)
(32.3757 -0.00383792 0)
(32.473 -0.00426871 0)
(32.5762 -0.00480081 0)
(32.6885 -0.00541073 0)
(32.8084 -0.00617303 0)
(32.9414 -0.00709262 0)
(33.085 -0.0083265 0)
(33.2509 -0.00980564 0)
(33.4307 -0.0111681 0)
(33.6136 -0.012025 0)
(33.7653 -0.0132203 0)
(33.9269 -0.0149738 0)
(34.0994 -0.0165432 0)
(34.2799 -0.0178844 0)
(34.4665 -0.0192082 0)
(34.659 -0.0205508 0)
(34.8557 -0.0221264 0)
(35.0607 -0.0233863 0)
(35.2613 -0.0259272 0)
(35.4878 -0.0259491 0)
(35.6733 -0.0308695 0)
(35.9416 -0.0270393 0)
(36.0797 -0.0349707 0)
(36.3952 -0.0265317 0)
(36.489 -0.0305613 0)
(36.7591 -0.026339 0)
(36.9306 -0.00450959 0)
(36.9045 -0.0230408 0)
(37.3699 0.0548722 0)
(36.7435 0.0052849 0)
(37.6247 0.109576 0)
(36.4113 0.170048 0)
(37.2436 -0.489002 0)
(37.028 0.826177 0)
(45.6326 0.132605 0)
(38.1507 0.0448395 0)
(35.0156 0.0173921 0)
(33.656 0.00834829 0)
(32.9622 0.00475239 0)
(32.5515 0.00304599 0)
(32.2852 0.0020662 0)
(32.1081 0.00141613 0)
(31.9903 0.000965385 0)
(31.9124 0.000643579 0)
(31.8628 0.000402725 0)
(31.8338 0.000215099 0)
(31.8205 6.45054e-05 0)
(31.819 -5.92551e-05 0)
(31.8269 -0.000163228 0)
(31.8423 -0.000252399 0)
(31.8636 -0.000330655 0)
(31.8898 -0.000400848 0)
(31.9202 -0.000465666 0)
(31.954 -0.000527108 0)
(31.9909 -0.000586013 0)
(32.0303 -0.000642391 0)
(32.072 -0.000696757 0)
(32.1156 -0.000750042 0)
(32.161 -0.000802892 0)
(32.2078 -0.000855419 0)
(32.256 -0.000907624 0)
(32.3054 -0.000959989 0)
(32.3558 -0.00101352 0)
(32.4073 -0.00106895 0)
(32.4598 -0.00112675 0)
(32.5132 -0.00118772 0)
(32.5676 -0.00125253 0)
(32.6231 -0.00132124 0)
(32.6796 -0.00139375 0)
(32.7371 -0.00147015 0)
(32.7956 -0.00155057 0)
(32.8552 -0.00163521 0)
(32.9159 -0.00172411 0)
(32.9777 -0.00181733 0)
(33.0405 -0.0019156 0)
(33.1045 -0.00202058 0)
(33.1696 -0.00213431 0)
(33.2361 -0.00225854 0)
(33.304 -0.00239524 0)
(33.3735 -0.00254719 0)
(33.4448 -0.00271783 0)
(33.5182 -0.00291095 0)
(33.5939 -0.00313062 0)
(33.6723 -0.00338108 0)
(33.7538 -0.00366826 0)
(33.8388 -0.00399678 0)
(33.9278 -0.00437833 0)
(34.0214 -0.00481237 0)
(34.12 -0.0053299 0)
(34.2251 -0.00591508 0)
(34.3363 -0.00663485 0)
(34.4568 -0.00745722 0)
(34.5849 -0.00848383 0)
(34.7266 -0.00970819 0)
(34.8785 -0.011363 0)
(35.0536 -0.0133237 0)
(35.2416 -0.0154015 0)
(35.4389 -0.0169942 0)
(35.6053 -0.0187654 0)
(35.7819 -0.0211709 0)
(35.9696 -0.023412 0)
(36.166 -0.0253974 0)
(36.3693 -0.0273882 0)
(36.5801 -0.0293809 0)
(36.7951 -0.0317393 0)
(37.0206 -0.0335665 0)
(37.2404 -0.0372331 0)
(37.4887 -0.0373899 0)
(37.6957 -0.0440953 0)
(37.9821 -0.0395827 0)
(38.1535 -0.0495313 0)
(38.4701 -0.0405064 0)
(38.6268 -0.0438643 0)
(38.869 -0.0423301 0)
(39.1389 -0.0124292 0)
(39.0775 -0.0383532 0)
(39.6396 0.0547304 0)
(39.0495 0.00404278 0)
(39.9579 0.106129 0)
(38.8839 0.218198 0)
(39.8561 -0.533837 0)
(38.9741 0.811574 0)
(47.3003 0.151637 0)
(40.2279 0.058325 0)
(36.897 0.0235684 0)
(35.4015 0.0113086 0)
(34.6347 0.00640819 0)
(34.1806 0.0041008 0)
(33.8851 0.00278497 0)
(33.687 0.00191457 0)
(33.5536 0.00131077 0)
(33.464 0.00087902 0)
(33.4055 0.000555397 0)
(33.3698 0.000302892 0)
(33.3514 9.98393e-05 0)
(33.3463 -6.74899e-05 0)
(33.3517 -0.000208608 0)
(33.3655 -0.0003302 0)
(33.3861 -0.000437407 0)
(33.4123 -0.000533968 0)
(33.4432 -0.000623377 0)
(33.4782 -0.000708245 0)
(33.5166 -0.00078971 0)
(33.5581 -0.000867834 0)
(33.6022 -0.000943295 0)
(33.6486 -0.00101731 0)
(33.6969 -0.00109075 0)
(33.7471 -0.00116383 0)
(33.7988 -0.00123661 0)
(33.852 -0.00130973 0)
(33.9064 -0.0013845 0)
(33.962 -0.00146189 0)
(34.0188 -0.00154254 0)
(34.0768 -0.0016275 0)
(34.1359 -0.00171767 0)
(34.1961 -0.00181319 0)
(34.2575 -0.00191395 0)
(34.32 -0.00202009 0)
(34.3838 -0.00213186 0)
(34.4487 -0.00224953 0)
(34.5149 -0.00237324 0)
(34.5822 -0.00250316 0)
(34.6508 -0.00264025 0)
(34.7206 -0.00278666 0)
(34.7918 -0.00294501 0)
(34.8645 -0.00311763 0)
(34.9387 -0.00330711 0)
(35.0147 -0.00351711 0)
(35.0926 -0.00375205 0)
(35.1728 -0.00401684 0)
(35.2555 -0.0043168 0)
(35.341 -0.00465744 0)
(35.4297 -0.00504663 0)
(35.5221 -0.00549022 0)
(35.6186 -0.0060038 0)
(35.7199 -0.0065863 0)
(35.8264 -0.00727831 0)
(35.9395 -0.00805882 0)
(36.0588 -0.00901468 0)
(36.1875 -0.0101026 0)
(36.3239 -0.01146 0)
(36.4742 -0.0130588 0)
(36.6343 -0.0152341 0)
(36.8182 -0.0177868 0)
(37.0141 -0.0208389 0)
(37.225 -0.023502 0)
(37.4056 -0.0260706 0)
(37.5967 -0.0293036 0)
(37.7991 -0.0324072 0)
(38.0109 -0.0352397 0)
(38.23 -0.0381267 0)
(38.4578 -0.0409871 0)
(38.6902 -0.0443993 0)
(38.9344 -0.0469982 0)
(39.1735 -0.0521023 0)
(39.4399 -0.0526107 0)
(39.6724 -0.0613346 0)
(39.9688 -0.0566114 0)
(40.1829 -0.0683104 0)
(40.4891 -0.0599312 0)
(40.7184 -0.0613862 0)
(40.9276 -0.0645844 0)
(41.2947 -0.025051 0)
(41.2025 -0.0595015 0)
(41.8626 0.0476753 0)
(41.2785 -0.00104461 0)
(42.2881 0.0937704 0)
(41.1912 0.257171 0)
(42.4723 -0.558633 0)
(40.7869 0.746842 0)
(48.6951 0.16986 0)
(42.2918 0.0741031 0)
(38.8164 0.0315567 0)
(37.1733 0.0152612 0)
(36.3204 0.00863172 0)
(35.814 0.00552054 0)
(35.4834 0.00375791 0)
(35.2597 0.00259625 0)
(35.1071 0.00178997 0)
(35.0029 0.0012123 0)
(34.9332 0.000778516 0)
(34.8888 0.000439454 0)
(34.8638 0.00016624 0)
(34.8537 -5.95168e-05 0)
(34.8554 -0.000250614 0)
(34.8666 -0.000416002 0)
(34.8856 -0.000562475 0)
(34.911 -0.000694913 0)
(34.942 -0.000817813 0)
(34.9776 -0.00093455 0)
(35.0173 -0.00104669 0)
(35.0605 -0.0011544 0)
(35.1068 -0.00125858 0)
(35.1558 -0.00136077 0)
(35.2072 -0.00146217 0)
(35.2607 -0.00156313 0)
(35.316 -0.00166382 0)
(35.3731 -0.00176508 0)
(35.4316 -0.0018686 0)
(35.4916 -0.00197562 0)
(35.553 -0.00208701 0)
(35.6157 -0.00220411 0)
(35.6797 -0.00232816 0)
(35.745 -0.0024594 0)
(35.8116 -0.00259778 0)
(35.8796 -0.00274352 0)
(35.9489 -0.00289698 0)
(36.0195 -0.00305863 0)
(36.0914 -0.00322874 0)
(36.1648 -0.00340762 0)
(36.2395 -0.00359656 0)
(36.3156 -0.00379825 0)
(36.3933 -0.00401602 0)
(36.4726 -0.00425288 0)
(36.5536 -0.00451226 0)
(36.6365 -0.00479877 0)
(36.7216 -0.00511809 0)
(36.809 -0.00547645 0)
(36.899 -0.00588072 0)
(36.9921 -0.00633796 0)
(37.0885 -0.00685847 0)
(37.1887 -0.00744946 0)
(37.2932 -0.00813146 0)
(37.4026 -0.00890261 0)
(37.5173 -0.00981513 0)
(37.6387 -0.0108416 0)
(37.7665 -0.0120931 0)
(37.9038 -0.0135108 0)
(38.0487 -0.01528 0)
(38.2077 -0.0173367 0)
(38.3761 -0.0201517 0)
(38.5686 -0.0234267 0)
(38.7721 -0.0277838 0)
(38.9964 -0.031956 0)
(39.1907 -0.0356125 0)
(39.3961 -0.0398883 0)
(39.6128 -0.0440842 0)
(39.8395 -0.0480105 0)
(40.0738 -0.0520726 0)
(40.3177 -0.0560797 0)
(40.5669 -0.0608648 0)
(40.8278 -0.0645508 0)
(41.0876 -0.071395 0)
(41.3674 -0.0727245 0)
(41.6309 -0.0835444 0)
(41.9281 -0.0795519 0)
(42.1956 -0.0925092 0)
(42.4812 -0.0864363 0)
(42.7922 -0.0849187 0)
(42.9665 -0.0948156 0)
(43.4324 -0.0444897 0)
(43.3133 -0.0891694 0)
(44.0786 0.0336 0)
(43.4903 -0.0159292 0)
(44.6129 0.0778948 0)
(43.508 0.276249 0)
(44.9619 -0.541288 0)
(42.7581 0.654582 0)
(49.7539 0.18605 0)
(44.3042 0.0919019 0)
(40.7759 0.041732 0)
(38.9836 0.0205358 0)
(38.0327 0.0116344 0)
(37.4651 0.00744494 0)
(37.0929 0.00508454 0)
(36.8389 0.00353562 0)
(36.6634 0.00246012 0)
(36.5415 0.00168781 0)
(36.458 0.00110669 0)
(36.4028 0.000651572 0)
(36.3693 0.00028406 0)
(36.3527 -2.04107e-05 0)
(36.3495 -0.000279008 0)
(36.357 -0.000503729 0)
(36.3735 -0.000703579 0)
(36.3975 -0.000884945 0)
(36.4278 -0.00105358 0)
(36.4635 -0.0012138 0)
(36.504 -0.00136778 0)
(36.5487 -0.00151589 0)
(36.597 -0.00165932 0)
(36.6485 -0.00179999 0)
(36.7028 -0.00193947 0)
(36.7596 -0.00207837 0)
(36.8186 -0.00221704 0)
(36.8797 -0.00235657 0)
(36.9426 -0.00249904 0)
(37.0072 -0.0026461 0)
(37.0734 -0.0027989 0)
(37.1411 -0.00295914 0)
(37.2104 -0.00312843 0)
(37.2812 -0.00330726 0)
(37.3534 -0.00349569 0)
(37.4272 -0.00369407 0)
(37.5024 -0.00390296 0)
(37.5791 -0.00412304 0)
(37.6574 -0.00435481 0)
(37.7372 -0.00459886 0)
(37.8185 -0.00485684 0)
(37.9014 -0.00513209 0)
(37.9861 -0.00542875 0)
(38.0725 -0.00575072 0)
(38.1608 -0.00610237 0)
(38.2512 -0.00648954 0)
(38.3439 -0.00691933 0)
(38.4392 -0.0073996 0)
(38.5372 -0.00793911 0)
(38.6384 -0.0085468 0)
(38.743 -0.00923593 0)
(38.8516 -0.0100154 0)
(38.9646 -0.0109117 0)
(39.0827 -0.011922 0)
(39.2061 -0.0131125 0)
(39.3363 -0.0144478 0)
(39.473 -0.0160686 0)
(39.6193 -0.0178949 0)
(39.7731 -0.0201751 0)
(39.9412 -0.0227902 0)
(40.118 -0.0263901 0)
(40.3194 -0.0305427 0)
(40.5306 -0.0366152 0)
(40.7681 -0.0428698 0)
(40.9757 -0.0480094 0)
(41.1951 -0.053606 0)
(41.426 -0.0591738 0)
(41.6672 -0.0644981 0)
(41.9164 -0.0700758 0)
(42.1755 -0.0756109 0)
(42.4417 -0.0821493 0)
(42.7175 -0.0874544 0)
(42.9995 -0.0963123 0)
(43.2891 -0.0993763 0)
(43.5882 -0.112086 0)
(43.8815 -0.110458 0)
(44.2093 -0.123557 0)
(44.472 -0.122169 0)
(44.8696 -0.11567 0)
(45.0189 -0.135271 0)
(45.571 -0.0714828 0)
(45.4807 -0.130233 0)
(46.2606 0.00926771 0)
(45.8608 -0.0417273 0)
(46.8028 0.0474608 0)
(46.1257 0.273039 0)
(47.1622 -0.486254 0)
(45.2739 0.590706 0)
(50.3976 0.198751 0)
(46.1922 0.110945 0)
(42.7585 0.0543775 0)
(40.836 0.0275268 0)
(39.7793 0.0156962 0)
(39.142 0.0100643 0)
(38.7218 0.00690139 0)
(38.4327 0.00483551 0)
(38.2303 0.00340086 0)
(38.0875 0.00236814 0)
(37.9875 0.00158935 0)
(37.9193 0.000978188 0)
(37.8755 0.000483568 0)
(37.8507 7.276e-05 0)
(37.8411 -0.000277192 0)
(37.8438 -0.000582371 0)
(37.8568 -0.000854799 0)
(37.8784 -0.00110289 0)
(37.9073 -0.001334 0)
(37.9425 -0.00155366 0)
(37.9833 -0.00176481 0)
(38.029 -0.00196821 0)
(38.079 -0.0021654 0)
(38.1328 -0.00235875 0)
(38.1899 -0.0025503 0)
(38.25 -0.00274101 0)
(38.3128 -0.00293148 0)
(38.378 -0.00312314 0)
(38.4454 -0.00331855 0)
(38.5148 -0.0035198 0)
(38.5861 -0.00372846 0)
(38.6593 -0.00394665 0)
(38.7342 -0.00417646 0)
(38.8108 -0.00441874 0)
(38.8892 -0.00467376 0)
(38.9692 -0.0049421 0)
(39.0508 -0.00522458 0)
(39.1342 -0.0055222 0)
(39.2193 -0.00583583 0)
(39.306 -0.00616641 0)
(39.3945 -0.00651612 0)
(39.4848 -0.00688903 0)
(39.577 -0.00729027 0)
(39.6711 -0.00772479 0)
(39.7674 -0.00819819 0)
(39.8659 -0.00871772 0)
(39.9668 -0.00929219 0)
(40.0705 -0.00993137 0)