/*--------------------------------*- C++ -*----------------------------------*\
| =========                 |                                                 |
| \\      /  F ield         | OpenFOAM: The Open Source CFD Toolbox           |
|  \\    /   O peration     | Version:  5.x                                   |
|   \\  /    A nd           | Web:      www.OpenFOAM.org                      |
|    \\/     M anipulation  |                                                 |
\*---------------------------------------------------------------------------*/
FoamFile
{
    version     2.0;
    format      ascii;
    class       surfaceScalarField;
    location    "0";
    object      phi;
}
// * * * * * * * * * * * * * * * * * * * * * * * * * * * * * * * * * * * * * //

dimensions      [0 3 -1 0 0 0 0];

internalField   nonuniform List<scalar> 
260086
(
-6.06938e-13
3.67179e-05
-5.28414e-12
4.03897e-05
-1.04069e-11
4.44287e-05
-1.60068e-11
4.88715e-05
-2.21183e-11
5.37587e-05
-2.87697e-11
5.91345e-05
-3.59864e-11
6.5048e-05
-4.37869e-11
7.15528e-05
-5.21825e-11
7.87081e-05
-6.11768e-11
8.65789e-05
-7.07576e-11
9.52368e-05
-8.09009e-11
0.00010476
-9.15623e-11
0.000115236
-1.02683e-10
0.00012676
-1.14176e-10
0.000139436
-1.25933e-10
0.00015338
-1.37802e-10
0.000168718
-1.49624e-10
0.00018559
-1.61158e-10
0.000204148
-1.72203e-10
0.000224563
-1.82404e-10
0.00024702
-1.91572e-10
0.000271722
-1.99199e-10
0.000298894
-2.05211e-10
0.000328783
-2.08878e-10
0.000361661
-2.1038e-10
0.000397828
-2.08616e-10
0.00043761
-2.0411e-10
0.000481371
-1.95213e-10
0.000529509
-1.8277e-10
0.000582459
-1.64702e-10
0.000640705
-1.42212e-10
0.000704776
-1.15271e-10
0.000775253
-8.54254e-11
0.000852779
-5.3069e-11
0.000938057
-1.85501e-11
0.00103186
1.9562e-11
0.00113505
6.2261e-11
0.00124855
1.04432e-10
0.00124855
1.40683e-10
0.00113505
1.70527e-10
0.00103186
1.93729e-10
0.000938057
2.10061e-10
0.000852779
2.19807e-10
0.000775253
2.25392e-10
0.000704776
2.27689e-10
0.000640705
2.28725e-10
0.000582459
2.28241e-10
0.000529509
2.26654e-10
0.000481371
2.22661e-10
0.00043761
2.17027e-10
0.000397828
2.09246e-10
0.000361661
2.00154e-10
0.000328783
1.89625e-10
0.000298894
1.78337e-10
0.000271722
1.66334e-10
0.00024702
1.54087e-10
0.000224563
1.417e-10
0.000204148
1.29471e-10
0.00018559
1.17497e-10
0.000168718
1.05948e-10
0.00015338
9.48874e-11
0.000139436
8.43992e-11
0.00012676
7.451e-11
0.000115236
6.52478e-11
0.00010476
5.66089e-11
9.52367e-05
4.85914e-11
8.65789e-05
4.11754e-11
7.87081e-05
3.43371e-11
7.15528e-05
2.80444e-11
6.5048e-05
2.2271e-11
5.91346e-05
1.69815e-11
5.37587e-05
1.21427e-11
4.88715e-05
7.71827e-12
4.44287e-05
3.67999e-12
4.03897e-05
3.67179e-05
-1.43122e-12
3.67179e-05
-6.70219e-12
4.03897e-05
-1.2446e-11
4.44287e-05
-1.86944e-11
4.88715e-05
-2.54665e-11
5.37587e-05
-3.27809e-11
5.91345e-05
-4.06415e-11
6.5048e-05
-4.90562e-11
7.15528e-05
-5.80263e-11
7.87081e-05
-6.75357e-11
8.65789e-05
-7.7558e-11
9.52368e-05
-8.80642e-11
0.00010476
-9.90017e-11
0.000115236
-1.10311e-10
0.00012676
-1.219e-10
0.000139436
-1.33659e-10
0.00015338
-1.45427e-10
0.000168718
-1.57056e-10
0.000185589
-1.68281e-10
0.000204148
-1.78941e-10
0.000224563
-1.88635e-10
0.00024702
-1.97275e-10
0.000271722
-2.04259e-10
0.000298894
-2.09713e-10
0.000328783
-2.12716e-10
0.000361661
-2.13756e-10
0.000397828
-2.11405e-10
0.00043761
-2.06534e-10
0.000481371
-1.97049e-10
0.000529508
-1.84091e-10
0.000582459
-1.65479e-10
0.000640705
-1.42158e-10
0.000704776
-1.14837e-10
0.000775253
-8.52775e-11
0.000852779
-5.32509e-11
0.000938057
-1.88039e-11
0.00103186
1.94196e-11
0.00113505
6.23838e-11
0.00124855
1.04858e-10
0.00124855
1.4142e-10
0.00113505
1.71468e-10
0.00103186
1.94656e-10
0.000938057
2.10985e-10
0.000852779
2.20387e-10
0.000775253
2.25806e-10
0.000704776
2.28655e-10
0.000640705
2.30447e-10
0.000582459
2.30582e-10
0.000529508
2.29577e-10
0.000481371
2.26077e-10
0.00043761
2.20961e-10
0.000397828
2.13616e-10
0.000361661
2.04973e-10
0.000328783
1.94807e-10
0.000298894
1.83853e-10
0.000271722
1.72089e-10
0.00024702
1.60018e-10
0.000224563
1.47706e-10
0.000204148
1.35466e-10
0.00018559
1.23378e-10
0.000168718
1.11626e-10
0.00015338
1.00269e-10
0.000139436
8.94013e-11
0.00012676
7.90568e-11
0.000115236
6.92766e-11
0.00010476
6.00658e-11
9.52367e-05
5.14328e-11
8.65789e-05
4.33644e-11
7.87081e-05
3.58526e-11
7.15528e-05
2.88731e-11
6.5048e-05
2.24061e-11
5.91346e-05
1.64171e-11
5.37587e-05
1.08865e-11
4.88715e-05
5.78842e-12
4.44287e-05
1.09956e-12
4.03897e-05
3.67179e-05
-1.79412e-12
3.67179e-05
-7.51117e-12
4.03897e-05
-1.37243e-11
4.44287e-05
-2.04565e-11
4.88715e-05
-2.77114e-11
5.37587e-05
-3.55101e-11
5.91345e-05
-4.38491e-11
6.5048e-05
-5.27181e-11
7.15528e-05
-6.21089e-11
7.87081e-05
-7.20011e-11
8.65789e-05
-8.2363e-11
9.52368e-05
-9.31552e-11
0.00010476
-1.04323e-10
0.000115236
-1.15802e-10
0.00012676
-1.27483e-10
0.000139436
-1.39265e-10
0.00015338
-1.50964e-10
0.000168718
-1.6245e-10
0.000185589
-1.73423e-10
0.000204148
-1.83781e-10
0.000224563
-1.9306e-10
0.00024702
-2.01298e-10
0.000271722
-2.07766e-10
0.000298894
-2.12812e-10
0.000328783
-2.15298e-10
0.000361661
-2.16016e-10
0.000397828
-2.13227e-10
0.00043761
-2.081e-10
0.000481371
-1.98152e-10
0.000529508
-1.84614e-10
0.000582459
-1.65629e-10
0.000640705
-1.42203e-10
0.000704776
-1.14892e-10
0.000775253
-8.53962e-11
0.000852779
-5.34761e-11
0.000938057
-1.90579e-11
0.00103186
1.92211e-11
0.00113505
6.23219e-11
0.00124855
1.04971e-10
0.00124855
1.41734e-10
0.00113505
1.71898e-10
0.00103186
1.9493e-10
0.000938057
2.11217e-10
0.000852779
2.20802e-10
0.000775253
2.26582e-10
0.000704776
2.29795e-10
0.000640705
2.3204e-10
0.000582459
2.32537e-10
0.000529508
2.31926e-10
0.000481371
2.28714e-10
0.00043761
2.23902e-10
0.000397828
2.16755e-10
0.000361661
2.08287e-10
0.000328783
1.98195e-10
0.000298894
1.87271e-10
0.000271722
1.75455e-10
0.00024702
1.63288e-10
0.000224563
1.50824e-10
0.000204148
1.38402e-10
0.00018559
1.26104e-10
0.000168718
1.14128e-10
0.00015338
1.02542e-10
0.000139436
9.14468e-11
0.00012676
8.08803e-11
0.000115236
7.08913e-11
0.00010476
6.14846e-11
9.52367e-05
5.26729e-11
8.65789e-05
4.44453e-11
7.87081e-05
3.67899e-11
7.15528e-05
2.96856e-11
6.5048e-05
2.31085e-11
5.91346e-05
1.703e-11
5.37587e-05
1.14246e-11
4.88715e-05
6.26521e-12
4.44287e-05
1.51576e-12
4.03897e-05
3.67179e-05
-1.96465e-12
3.67179e-05
-7.75986e-12
4.03897e-05
-1.40608e-11
4.44286e-05
-2.08926e-11
4.88715e-05
-2.82639e-11
5.37587e-05
-3.61869e-11
5.91345e-05
-4.46594e-11
6.5048e-05
-5.36821e-11
7.15528e-05
-6.32342e-11
7.87081e-05
-7.32996e-11
8.65789e-05
-8.38387e-11
9.52368e-05
-9.48179e-11
0.00010476
-1.0617e-10
0.000115236
-1.17825e-10
0.00012676
-1.2967e-10
0.000139436
-1.41594e-10
0.00015338
-1.53405e-10
0.000168718
-1.64963e-10
0.000185589
-1.75961e-10
0.000204148
-1.86294e-10
0.000224563
-1.95494e-10
0.00024702
-2.03597e-10
0.000271722
-2.09896e-10
0.000298894
-2.14724e-10
0.000328783
-2.17003e-10
0.000361661
-2.1747e-10
0.000397828
-2.14508e-10
0.00043761
-2.09134e-10
0.000481371
-1.99049e-10
0.000529508
-1.8513e-10
0.000582459
-1.65879e-10
0.000640705
-1.42355e-10
0.000704776
-1.15066e-10
0.000775253
-8.56221e-11
0.000852779
-5.37667e-11
0.000938057
-1.93728e-11
0.00103186
1.8935e-11
0.00113505
6.21404e-11
0.00124855
1.04922e-10
0.00124855
1.4184e-10
0.00113505
1.72141e-10
0.00103186
1.95187e-10
0.000938057
2.11442e-10
0.000852779
2.21303e-10
0.000775253
2.27333e-10
0.000704776
2.30902e-10
0.000640705
2.3346e-10
0.000582459
2.34291e-10
0.000529508
2.33983e-10
0.000481371
2.31042e-10
0.00043761
2.2648e-10
0.000397828
2.1953e-10
0.000361661
2.11236e-10
0.000328783
2.01265e-10
0.000298894
1.9043e-10
0.000271722
1.78652e-10
0.00024702
1.66488e-10
0.000224563
1.53981e-10
0.000204148
1.41481e-10
0.00018559
1.29064e-10
0.000168718
1.16938e-10
0.00015338
1.05172e-10
0.000139436
9.38738e-11
0.00012676
8.30895e-11
0.000115236
7.28662e-11
0.00010476
6.32232e-11
9.52367e-05
5.41668e-11
8.65789e-05
4.56997e-11
7.87081e-05
3.78126e-11
7.15528e-05
3.04812e-11
6.5048e-05
2.3687e-11
5.91345e-05
1.74065e-11
5.37587e-05
1.16067e-11
4.88715e-05
6.26343e-12
4.44287e-05
1.3495e-12
4.03897e-05
3.67179e-05
-2.04574e-12
3.67179e-05
-7.93467e-12
4.03897e-05
-1.43345e-11
4.44286e-05
-2.12665e-11
4.88715e-05
-2.87451e-11
5.37587e-05
-3.67848e-11
5.91345e-05
-4.53812e-11
6.5048e-05
-5.45282e-11
7.15528e-05
-6.42057e-11
7.87081e-05
-7.43912e-11
8.65789e-05
-8.50533e-11
9.52367e-05
-9.61426e-11
0.00010476
-1.07597e-10
0.000115236
-1.19342e-10
0.00012676
-1.31259e-10
0.000139436
-1.43241e-10
0.00015338
-1.55083e-10
0.000168718
-1.66658e-10
0.000185589
-1.77645e-10
0.000204148
-1.87952e-10
0.000224563
-1.97095e-10
0.00024702
-2.0513e-10
0.000271722
-2.11328e-10
0.000298894
-2.16051e-10
0.000328783
-2.18201e-10
0.000361661
-2.18539e-10
0.000397828
-2.15447e-10
0.00043761
-2.0992e-10
0.000481371
-1.99726e-10
0.000529508
-1.85616e-10
0.000582459
-1.66211e-10
0.000640705
-1.42605e-10
0.000704776
-1.15313e-10
0.000775253
-8.59073e-11
0.000852779
-5.41037e-11
0.000938056
-1.97401e-11
0.00103186
1.85786e-11
0.00113505
6.18644e-11
0.00124855
1.04755e-10
0.00124855
1.41797e-10
0.00113505
1.72224e-10
0.00103186
1.95368e-10
0.000938056
2.1167e-10
0.000852779
2.21743e-10
0.000775253
2.27983e-10
0.000704776
2.3181e-10
0.000640705
2.34606e-10
0.000582459
2.35652e-10
0.000529508
2.35541e-10
0.000481371
2.32731e-10
0.00043761
2.28269e-10
0.000397827
2.21347e-10
0.000361661
2.13045e-10
0.000328783
2.03006e-10
0.000298894
1.92073e-10
0.000271722
1.80163e-10
0.00024702
1.67848e-10
0.000224563
1.55179e-10
0.000204148
1.42514e-10
0.000185589
1.29941e-10
0.000168718
1.17672e-10
0.00015338
1.05778e-10
0.000139436
9.43718e-11
0.00012676
8.34963e-11
0.000115236
7.32019e-11
0.00010476
6.35039e-11
9.52367e-05
5.44089e-11
8.65789e-05
4.59147e-11
7.8708e-05
3.80082e-11
7.15528e-05
3.06709e-11
6.5048e-05
2.38707e-11
5.91345e-05
1.75948e-11
5.37587e-05
1.18047e-11
4.88715e-05
6.47022e-12
4.44286e-05
1.5655e-12
4.03897e-05
3.67179e-05
-2.04583e-12
3.67179e-05
-7.94952e-12
4.03897e-05
-1.43636e-11
4.44286e-05
-2.13163e-11
4.88715e-05
-2.88196e-11
5.37587e-05
-3.68844e-11
5.91345e-05
-4.55171e-11
6.5048e-05
-5.47029e-11
7.15528e-05
-6.44341e-11
7.87081e-05
-7.46843e-11
8.65789e-05
-8.54166e-11
9.52367e-05
-9.65873e-11
0.00010476
-1.08129e-10
0.000115236
-1.19968e-10
0.00012676
-1.31982e-10
0.000139436
-1.44059e-10
0.00015338
-1.55993e-10
0.000168718
-1.67647e-10
0.000185589
-1.78697e-10
0.000204148
-1.89046e-10
0.000224563
-1.98203e-10
0.00024702
-2.06232e-10
0.000271722
-2.12392e-10
0.000298894
-2.17068e-10
0.000328783
-2.19139e-10
0.000361661
-2.19406e-10
0.000397828
-2.16218e-10
0.00043761
-2.10622e-10
0.000481371
-2.00319e-10
0.000529508
-1.86115e-10
0.000582459
-1.66598e-10
0.000640705
-1.42937e-10
0.000704776
-1.15621e-10
0.000775253
-8.62437e-11
0.000852779
-5.4484e-11
0.000938056
-2.01559e-11
0.00103186
1.81568e-11
0.00113505
6.15015e-11
0.00124855
1.04481e-10
0.00124855
1.41628e-10
0.00113505
1.72172e-10
0.00103186
1.95429e-10
0.000938056
2.11835e-10
0.000852779
2.22062e-10
0.000775253
2.28478e-10
0.000704776
2.32477e-10
0.000640705
2.35463e-10
0.000582459
2.3666e-10
0.000529508
2.36702e-10
0.000481371
2.33987e-10
0.00043761
2.29616e-10
0.000397827
2.22737e-10
0.000361661
2.14471e-10
0.000328783
2.04436e-10
0.000298894
1.93503e-10
0.000271722
1.81573e-10
0.00024702
1.69233e-10
0.000224563
1.56524e-10
0.000204148
1.43812e-10
0.000185589
1.31179e-10
0.000168718
1.18842e-10
0.00015338
1.06869e-10
0.000139436
9.53744e-11
0.00012676
8.44068e-11
0.000115236
7.4015e-11
0.00010476
6.42121e-11
9.52367e-05
5.50162e-11
8.65789e-05
4.64171e-11
7.8708e-05
3.84097e-11
7.15528e-05
3.09683e-11
6.5048e-05
2.40767e-11
5.91345e-05
1.77085e-11
5.37586e-05
1.18305e-11
4.88715e-05
6.41725e-12
4.44286e-05
1.43592e-12
4.03897e-05
3.67179e-05
-2.10205e-12
3.67179e-05
-8.0213e-12
4.03897e-05
-1.44595e-11
4.44286e-05
-2.14362e-11
4.88715e-05
-2.89714e-11
5.37587e-05
-3.70711e-11
5.91345e-05
-4.57396e-11
6.5048e-05
-5.49596e-11
7.15528e-05
-6.47281e-11
7.8708e-05
-7.50186e-11
8.65789e-05
-8.57918e-11
9.52367e-05
-9.70077e-11
0.00010476
-1.08596e-10
0.000115236
-1.20483e-10
0.00012676
-1.32544e-10
0.000139436
-1.44672e-10
0.00015338
-1.5665e-10
0.000168718
-1.68351e-10
0.000185589
-1.79436e-10
0.000204148
-1.89826e-10
0.000224563
-1.99002e-10
0.00024702
-2.07058e-10
0.000271722
-2.13213e-10
0.000298894
-2.17893e-10
0.000328783
-2.1993e-10
0.000361661
-2.20179e-10
0.000397827
-2.16935e-10
0.00043761
-2.11289e-10
0.000481371
-2.0092e-10
0.000529508
-1.86633e-10
0.000582459
-1.67044e-10
0.000640705
-1.43318e-10
0.000704776
-1.15983e-10
0.000775253
-8.66224e-11
0.000852779
-5.49092e-11
0.000938056
-2.06238e-11
0.00103186
1.76705e-11
0.00113505
6.10547e-11
0.00124855
1.04105e-10
0.00124855
1.41347e-10
0.00113505
1.71998e-10
0.00103186
1.95369e-10
0.000938056
2.11882e-10
0.000852779
2.22234e-10
0.000775253
2.28771e-10
0.000704776
2.32892e-10
0.000640705
2.35995e-10
0.000582459
2.3728e-10
0.000529508
2.37406e-10
0.000481371
2.34726e-10
0.00043761
2.30377e-10
0.000397827
2.23476e-10
0.000361661
2.15173e-10
0.000328783
2.05073e-10
0.000298894
1.94065e-10
0.000271722
1.82046e-10
0.00024702
1.69616e-10
0.000224563
1.56815e-10
0.000204148
1.44021e-10
0.000185589
1.31313e-10
0.000168718
1.18912e-10
0.00015338
1.06888e-10
0.000139436
9.53582e-11
0.00012676
8.43637e-11
0.000115236
7.39586e-11
0.00010476
6.41531e-11
9.52367e-05
5.49605e-11
8.65789e-05
4.63762e-11
7.8708e-05
3.83835e-11
7.15528e-05
3.09662e-11
6.50479e-05
2.40945e-11
5.91345e-05
1.77458e-11
5.37586e-05
1.18946e-11
4.88715e-05
6.50147e-12
4.44286e-05
1.54783e-12
4.03897e-05
3.67179e-05
-2.06057e-12
3.67179e-05
-8.0121e-12
4.03897e-05
-1.44845e-11
4.44286e-05
-2.1501e-11
4.88715e-05
-2.90722e-11
5.37587e-05
-3.72124e-11
5.91345e-05
-4.59217e-11
6.5048e-05
-5.51908e-11
7.15528e-05
-6.50063e-11
7.8708e-05
-7.53463e-11
8.65788e-05
-8.61693e-11
9.52367e-05
-9.74389e-11
0.00010476
-1.09079e-10
0.000115236
-1.2102e-10
0.00012676
-1.33134e-10
0.000139436
-1.45311e-10
0.00015338
-1.57337e-10
0.000168718
-1.6908e-10
0.000185589
-1.80201e-10
0.000204148
-1.90616e-10
0.000224563
-1.99807e-10
0.00024702
-2.0787e-10
0.000271722
-2.14018e-10
0.000298894
-2.18692e-10
0.000328783
-2.20701e-10
0.000361661
-2.20937e-10
0.000397827
-2.1765e-10
0.00043761
-2.11993e-10
0.000481371
-2.01557e-10
0.000529508
-1.87233e-10
0.000582459
-1.67554e-10
0.000640705
-1.43781e-10
0.000704776
-1.164e-10
0.000775253
-8.70541e-11
0.000852779
-5.53788e-11
0.000938056
-2.11412e-11
0.00103186
1.71233e-11
0.00113505
6.05308e-11
0.00124855
1.03638e-10
0.00124855
1.40967e-10
0.00113505
1.71719e-10
0.00103186
1.95195e-10
0.000938056
2.11808e-10
0.000852778
2.22239e-10
0.000775253
2.28864e-10
0.000704776
2.3305e-10
0.000640705
2.36238e-10
0.000582459
2.37579e-10
0.000529508
2.37767e-10
0.000481371
2.35116e-10
0.00043761
2.30794e-10
0.000397827
2.23899e-10
0.000361661
2.15602e-10
0.000328783
2.055e-10
0.000298894
1.9449e-10
0.000271722
1.82468e-10
0.00024702
1.70035e-10
0.000224563
1.57231e-10
0.000204148
1.44429e-10
0.000185589
1.31713e-10
0.000168718
1.19298e-10
0.00015338
1.07255e-10
0.000139436
9.57025e-11
0.00012676
8.46826e-11
0.000115236
7.42459e-11
0.00010476
6.44089e-11
9.52367e-05
5.51829e-11
8.65789e-05
4.6558e-11
7.8708e-05
3.85265e-11
7.15528e-05
3.10694e-11
6.50479e-05
2.4163e-11
5.91345e-05
1.77822e-11
5.37586e-05
1.18964e-11
4.88715e-05
6.47377e-12
4.44286e-05
1.48796e-12
4.03897e-05
3.67179e-05
-2.14531e-12
3.67179e-05
-8.08848e-12
4.03897e-05
-1.45546e-11
4.44286e-05
-2.15658e-11
4.88715e-05
-2.9144e-11
5.37587e-05
-3.72873e-11
5.91345e-05
-4.6003e-11
6.5048e-05
-5.52814e-11
7.15528e-05
-6.51093e-11
7.8708e-05
-7.5468e-11
8.65788e-05
-8.63167e-11
9.52367e-05
-9.76121e-11
0.00010476
-1.09285e-10
0.000115236
-1.21263e-10
0.00012676
-1.33417e-10
0.000139436
-1.45643e-10
0.00015338
-1.57715e-10
0.000168718
-1.69514e-10
0.000185589
-1.80683e-10
0.000204148
-1.91158e-10
0.000224563
-2.00395e-10
0.00024702
-2.08515e-10
0.000271722
-2.14693e-10
0.000298894
-2.19413e-10
0.000328783
-2.21431e-10
0.000361661
-2.21693e-10
0.000397827
-2.18392e-10
0.00043761
-2.12725e-10
0.000481371
-2.02252e-10
0.000529508
-1.87868e-10
0.000582459
-1.68131e-10
0.000640705
-1.44284e-10
0.000704776
-1.16876e-10
0.000775253
-8.75315e-11
0.000852778
-5.5901e-11
0.000938056
-2.17155e-11
0.00103186
1.65131e-11
0.00113505
5.99327e-11
0.00124855
1.03087e-10
0.00124855
1.40493e-10
0.00113505
1.71337e-10
0.00103186
1.94906e-10
0.000938056
2.11597e-10
0.000852778
2.22095e-10
0.000775253
2.28764e-10
0.000704776
2.32998e-10
0.000640705
2.36225e-10
0.000582459
2.37597e-10
0.000529508
2.37818e-10
0.000481371
2.35175e-10
0.00043761
2.30859e-10
0.000397827
2.23948e-10
0.000361661
2.15632e-10
0.000328783
2.05495e-10
0.000298894
1.94452e-10
0.000271721
1.82389e-10
0.00024702
1.69919e-10
0.000224563
1.5708e-10
0.000204148
1.44251e-10
0.000185589
1.31512e-10
0.000168718
1.19084e-10
0.00015338
1.07036e-10
0.000139436
9.54859e-11
0.00012676
8.44756e-11
0.000115236
7.40537e-11
0.00010476
6.42349e-11
9.52367e-05
5.50308e-11
8.65789e-05
4.64346e-11
7.8708e-05
3.84321e-11
7.15528e-05
3.10068e-11
6.50479e-05
2.41316e-11
5.91345e-05
1.77778e-11
5.37586e-05
1.19228e-11
4.88715e-05
6.52665e-12
4.44286e-05
1.56435e-12
4.03897e-05
3.67179e-05
-2.06643e-12
3.67179e-05
-8.07218e-12
4.03897e-05
-1.46008e-11
4.44286e-05
-2.16733e-11
4.88715e-05
-2.93031e-11
5.37586e-05
-3.7508e-11
5.91345e-05
-4.62864e-11
6.5048e-05
-5.56281e-11
7.15528e-05
-6.55193e-11
7.8708e-05
-7.59364e-11
8.65788e-05
-8.68408e-11
9.52367e-05
-9.81903e-11
0.00010476
-1.09914e-10
0.000115236
-1.21936e-10
0.00012676
-1.34132e-10
0.000139436
-1.46389e-10
0.00015338
-1.58492e-10
0.000168718
-1.70311e-10
0.000185589
-1.81497e-10
0.000204148
-1.91982e-10
0.000224563
-2.01221e-10
0.00024702
-2.09342e-10
0.000271721
-2.15514e-10
0.000298894
-2.20235e-10
0.000328783
-2.2224e-10
0.000361661
-2.22509e-10
0.000397827
-2.19186e-10
0.00043761
-2.13529e-10
0.000481371
-2.03008e-10
0.000529508
-1.88603e-10
0.000582459
-1.68774e-10
0.000640705
-1.44877e-10
0.000704776
-1.17404e-10
0.000775253
-8.80668e-11
0.000852778
-5.64681e-11
0.000938056
-2.23381e-11
0.00103186
1.58476e-11
0.00113505
5.92697e-11
0.00124855
1.02462e-10
0.00124855
1.3994e-10
0.00113505
1.70869e-10
0.00103186
1.94516e-10
0.000938056
2.11272e-10
0.000852778
2.21797e-10
0.000775253
2.28501e-10
0.000704776
2.32744e-10
0.000640705
2.36008e-10
0.000582459
2.37403e-10
0.000529508
2.37657e-10
0.000481371
2.35032e-10
0.00043761
2.30737e-10
0.000397827
2.23837e-10
0.000361661
2.15536e-10
0.000328783
2.05414e-10
0.000298894
1.94386e-10
0.000271721
1.82343e-10
0.00024702
1.69892e-10
0.000224563
1.57074e-10
0.000204148
1.44261e-10
0.000185589
1.31539e-10
0.000168718
1.19123e-10
0.00015338
1.07085e-10
0.000139436
9.55378e-11
0.00012676
8.45279e-11
0.000115236
7.41061e-11
0.00010476
6.42829e-11
9.52367e-05
5.50715e-11
8.65789e-05
4.64671e-11
7.8708e-05
3.84554e-11
7.15528e-05
3.10209e-11
6.50479e-05
2.41327e-11
5.91345e-05
1.77716e-11
5.37586e-05
1.19053e-11
4.88715e-05
6.49655e-12
4.44286e-05
1.52944e-12
4.03897e-05
3.67179e-05
-2.17133e-12
3.67179e-05
-8.15138e-12
4.03897e-05
-1.46499e-11
4.44286e-05
-2.17009e-11
4.88715e-05
-2.93092e-11
5.37586e-05
-3.74961e-11
5.91345e-05
-4.6259e-11
6.5048e-05
-5.5594e-11
7.15528e-05
-6.5484e-11
7.8708e-05
-7.59076e-11
8.65788e-05
-8.68274e-11
9.52367e-05
-9.82036e-11
0.00010476
-1.0996e-10
0.000115236
-1.22027e-10
0.00012676
-1.34273e-10
0.000139436
-1.46595e-10
0.00015338
-1.5876e-10
0.000168718
-1.70656e-10
0.000185589
-1.81912e-10
0.000204148
-1.9248e-10
0.000224563
-2.01787e-10
0.00024702
-2.09991e-10
0.000271721
-2.16214e-10
0.000298894
-2.21003e-10
0.000328783
-2.23038e-10
0.000361661
-2.23351e-10
0.000397827
-2.20031e-10
0.00043761
-2.14378e-10
0.000481371
-2.03831e-10
0.000529508
-1.89366e-10
0.000582459
-1.69482e-10
0.000640705
-1.45497e-10
0.000704776
-1.17991e-10
0.000775253
-8.86462e-11
0.000852778
-5.70912e-11
0.000938056
-2.30185e-11
0.00103186
1.51217e-11
0.00113505
5.85409e-11
0.00124855
1.01766e-10
0.00124855
1.39307e-10
0.00113505
1.70311e-10
0.00103186
1.94027e-10
0.000938056
2.10828e-10
0.000852778
2.21387e-10
0.000775253
2.2809e-10
0.000704776
2.32351e-10
0.000640705
2.35622e-10
0.000582459
2.37032e-10
0.000529508
2.37311e-10
0.000481371
2.347e-10
0.00043761
2.30422e-10
0.000397827
2.23526e-10
0.000361661
2.15233e-10
0.000328783
2.05107e-10
0.000298894
1.94081e-10
0.000271721
1.82032e-10
0.00024702
1.69582e-10
0.000224563
1.56762e-10
0.000204148
1.43956e-10
0.000185589
1.3124e-10
0.000168718
1.18837e-10
0.00015338
1.06812e-10
0.000139436
9.52846e-11
0.00012676
8.42966e-11
0.000115236
7.38969e-11
0.00010476
6.4099e-11
9.52367e-05
5.49161e-11
8.65789e-05
4.63416e-11
7.8708e-05
3.83562e-11
7.15528e-05
3.09465e-11
6.50479e-05
2.40831e-11
5.91345e-05
1.77432e-11
5.37586e-05
1.18999e-11
4.88715e-05
6.51818e-12
4.44286e-05
1.5703e-12
4.03897e-05
3.67179e-05
-2.06528e-12
3.67179e-05
-8.12046e-12
4.03897e-05
-1.46995e-11
4.44286e-05
-2.18323e-11
4.88715e-05
-2.95346e-11
5.37586e-05
-3.78106e-11
5.91345e-05
-4.66613e-11
6.5048e-05
-5.60799e-11
7.15528e-05
-6.60531e-11
7.8708e-05
-7.65525e-11
8.65788e-05
-8.75415e-11
9.52367e-05
-9.89759e-11
0.00010476
-1.10786e-10
0.000115236
-1.22896e-10
0.00012676
-1.35178e-10
0.000139436
-1.47522e-10
0.00015338
-1.59705e-10
0.000168718
-1.71607e-10
0.000185589
-1.82866e-10
0.000204148
-1.93428e-10
0.000224563
-2.02727e-10
0.00024702
-2.10923e-10
0.000271721
-2.17136e-10
0.000298894
-2.21925e-10
0.000328783
-2.2395e-10
0.000361661
-2.24277e-10
0.000397827
-2.20944e-10
0.00043761
-2.15309e-10
0.000481371
-2.04717e-10
0.000529508
-1.90236e-10
0.000582459
-1.70252e-10
0.000640705
-1.46214e-10
0.000704776
-1.18627e-10
0.000775253
-8.92837e-11
0.000852778
-5.77552e-11
0.000938056
-2.37427e-11
0.00103186
1.43476e-11
0.00113505
5.77576e-11
0.00124855
1.0101e-10
0.00124855
1.3861e-10
0.00113505
1.69683e-10
0.00103186
1.93454e-10
0.000938056
2.10295e-10
0.000852778
2.20846e-10
0.000775253
2.2756e-10
0.000704775
2.31805e-10
0.000640705
2.35099e-10
0.000582459
2.36526e-10
0.000529508
2.36836e-10
0.000481371
2.34248e-10
0.00043761
2.29998e-10
0.000397827
2.23128e-10
0.000361661
2.1486e-10
0.000328783
2.04762e-10
0.000298894
1.93763e-10
0.000271721
1.81744e-10
0.00024702
1.69322e-10
0.000224563
1.56533e-10
0.000204148
1.43753e-10
0.000185589
1.31065e-10
0.000168718
1.18682e-10
0.00015338
1.06679e-10
0.000139436
9.517e-11
0.00012676
8.41967e-11
0.000115236
7.38081e-11
0.00010476
6.40222e-11
9.52367e-05
5.4848e-11
8.65788e-05
4.62779e-11
7.8708e-05
3.83009e-11
7.15528e-05
3.08978e-11
6.50479e-05
2.40405e-11
5.91345e-05
1.77076e-11
5.37586e-05
1.18678e-11
4.88715e-05
6.49186e-12
4.44286e-05
1.54481e-12
4.03897e-05
3.67179e-05
-2.20206e-12
3.67179e-05
-8.21638e-12
4.03897e-05
-1.47633e-11
4.44286e-05
-2.18554e-11
4.88715e-05
-2.95161e-11
5.37586e-05
-3.77547e-11
5.91345e-05
-4.6575e-11
6.5048e-05
-5.59709e-11
7.15528e-05
-6.59295e-11
7.8708e-05
-7.6426e-11
8.65788e-05
-8.74221e-11
9.52367e-05
-9.88809e-11
0.00010476
-1.10727e-10
0.000115236
-1.22888e-10
0.00012676
-1.35229e-10
0.000139436
-1.4765e-10
0.00015338
-1.59912e-10
0.000168718
-1.7191e-10
0.000185589
-1.83259e-10
0.000204148
-1.93927e-10
0.000224563
-2.03313e-10
0.00024702
-2.11608e-10
0.000271721
-2.17892e-10
0.000298894
-2.22764e-10
0.000328783
-2.24834e-10
0.000361661
-2.25219e-10
0.000397827
-2.21901e-10
0.00043761
-2.1628e-10
0.000481371
-2.05669e-10
0.000529508
-1.91124e-10
0.000582459
-1.71085e-10
0.000640705
-1.46945e-10
0.000704775
-1.19321e-10
0.000775253
-8.99621e-11
0.000852778
-5.84759e-11
0.000938056
-2.45235e-11
0.00103186
1.35159e-11
0.00113505
5.69143e-11
0.00124855
1.0019e-10
0.00124855
1.37842e-10
0.00113505
1.68976e-10
0.00103186
1.928e-10
0.000938056
2.09662e-10
0.000852778
2.20229e-10
0.000775253
2.26918e-10
0.000704775
2.31168e-10
0.000640705
2.34458e-10
0.000582459
2.35899e-10
0.000529508
2.36239e-10
0.000481371
2.33674e-10
0.00043761
2.29457e-10
0.000397827
2.22607e-10
0.000361661
2.14369e-10
0.000328783
2.04289e-10
0.000298894
1.93317e-10
0.000271721
1.81318e-10
0.000247019
1.68922e-10
0.000224563
1.56154e-10
0.000204148
1.434e-10
0.000185589
1.30735e-10
0.000168718
1.18381e-10
0.00015338
1.06404e-10
0.000139436
9.49241e-11
0.00012676
8.39777e-11
0.000115236
7.36207e-11
0.00010476
6.386e-11
9.52367e-05
5.47121e-11
8.65788e-05
4.61672e-11
7.8708e-05
3.82125e-11
7.15528e-05
3.08308e-11
6.50479e-05
2.39952e-11
5.91345e-05
1.76809e-11
5.37586e-05
1.18564e-11
4.88715e-05
6.49017e-12
4.44286e-05
1.56372e-12
4.03897e-05
3.67179e-05
-2.07123e-12
3.67179e-05
-8.18368e-12
4.03897e-05
-1.48299e-11
4.44286e-05
-2.20259e-11
4.88715e-05
-2.97949e-11
5.37586e-05
-3.81435e-11
5.91345e-05
-4.70764e-11
6.5048e-05
-5.65776e-11
7.15527e-05
-6.66343e-11
7.8708e-05
-7.72252e-11
8.65788e-05
-8.83023e-11
9.52367e-05
-9.98264e-11
0.00010476
-1.11727e-10
0.000115236
-1.2393e-10
0.00012676
-1.36303e-10
0.000139436
-1.4874e-10
0.00015338
-1.6101e-10
0.000168718
-1.73002e-10
0.000185589
-1.84341e-10
0.000204148
-1.94989e-10
0.000224563
-2.04358e-10
0.000247019
-2.12636e-10
0.000271721
-2.18906e-10
0.000298894
-2.23777e-10
0.000328783
-2.25842e-10
0.000361661
-2.26245e-10
0.000397827
-2.22923e-10
0.00043761
-2.17328e-10
0.000481371
-2.06677e-10
0.000529508
-1.92122e-10
0.000582459
-1.71975e-10
0.000640705
-1.47779e-10
0.000704775
-1.20061e-10
0.000775253
-9.06977e-11
0.000852778
-5.92333e-11
0.000938056
-2.53432e-11
0.00103186
1.26421e-11
0.00113505
5.60243e-11
0.00124855
9.93201e-11
0.00124855
1.37022e-10
0.00113505
1.68213e-10
0.00103186
1.92075e-10
0.000938056
2.08959e-10
0.000852778
2.19497e-10
0.000775253
2.26185e-10
0.000704775
2.30405e-10
0.000640705
2.33717e-10
0.000582459
2.35175e-10
0.000529508
2.3555e-10
0.000481371
2.33016e-10
0.00043761
2.28837e-10
0.000397827
2.2202e-10
0.000361661
2.13816e-10
0.000328783
2.03772e-10
0.000298894
1.92832e-10
0.000271721
1.80869e-10
0.000247019
1.68504e-10
0.000224563
1.5577e-10
0.000204148
1.43047e-10
0.000185589
1.30413e-10
0.000168718
1.18087e-10
0.00015338
1.06139e-10
0.000139436
9.46826e-11
0.00012676
8.37623e-11
0.000115236
7.34257e-11
0.00010476
6.36876e-11
9.52367e-05
5.45612e-11
8.65788e-05
4.6037e-11
7.8708e-05
3.81021e-11
7.15528e-05
3.07372e-11
6.50479e-05
2.39197e-11
5.91345e-05
1.76223e-11
5.37586e-05
1.18136e-11
4.88715e-05
6.46521e-12
4.44286e-05
1.54721e-12
4.03897e-05
3.67179e-05
-2.23999e-12
3.67179e-05
-8.29527e-12
4.03897e-05
-1.4876e-11
4.44286e-05
-2.20126e-11
4.88715e-05
-2.97254e-11
5.37586e-05
-3.80151e-11
5.91345e-05
-4.68949e-11
6.5048e-05
-5.63523e-11
7.15527e-05
-6.63791e-11
7.8708e-05
-7.69522e-11
8.65788e-05
-8.80318e-11
9.52367e-05
-9.95782e-11
0.00010476
-1.11514e-10
0.000115236
-1.23774e-10
0.00012676
-1.36217e-10
0.000139436
-1.48744e-10
0.00015338
-1.6111e-10
0.000168718
-1.73219e-10
0.000185589
-1.8467e-10
0.000204148
-1.95447e-10
0.000224563
-2.04925e-10
0.000247019
-2.13328e-10
0.000271721
-2.19688e-10
0.000298894
-2.24665e-10
0.000328783
-2.26792e-10
0.000361661
-2.2727e-10
0.000397827
-2.23977e-10
0.00043761
-2.18408e-10
0.000481371
-2.07746e-10
0.000529508
-1.93127e-10
0.000582459
-1.72925e-10
0.000640705
-1.48617e-10
0.000704775
-1.20858e-10
0.000775253
-9.14721e-11
0.000852778
-6.0048e-11
0.000938056
-2.62189e-11
0.00103186
1.17126e-11
0.00113505
5.50776e-11
0.00124855
9.83912e-11
0.00124855
1.36137e-10
0.00113505
1.67379e-10
0.00103186
1.91281e-10
0.000938056
2.08171e-10
0.000852778
2.18714e-10
0.000775253
2.25361e-10
0.000704775
2.29582e-10
0.000640705
2.32883e-10
0.000582459
2.34359e-10
0.000529508
2.34772e-10
0.000481371
2.32271e-10
0.00043761
2.28136e-10
0.000397827
2.21356e-10
0.000361661
2.13198e-10
0.000328783
2.03189e-10
0.000298894
1.92295e-10
0.000271721
1.8037e-10
0.000247019
1.68049e-10
0.000224563
1.55353e-10
0.000204148
1.42673e-10
0.000185589
1.30077e-10
0.000168718
1.17792e-10
0.00015338
1.0588e-10
0.000139436
9.44614e-11
0.00012676
8.35731e-11
0.000115236
7.32676e-11
0.00010476
6.35562e-11
9.52367e-05
5.44512e-11
8.65788e-05
4.59478e-11
7.8708e-05
3.80329e-11
7.15528e-05
3.06873e-11
6.50479e-05
2.38807e-11
5.91345e-05
1.75948e-11
5.37586e-05
1.1796e-11
4.88715e-05
6.45601e-12
4.44286e-05
1.54898e-12
4.03896e-05
3.67179e-05
-2.08189e-12
3.67179e-05
-8.24658e-12
4.03897e-05
-1.49499e-11
4.44286e-05
-2.22169e-11
4.88715e-05
-3.00543e-11
5.37586e-05
-3.84802e-11
5.91345e-05
-4.74882e-11
6.50479e-05
-5.70729e-11
7.15527e-05
-6.72158e-11
7.8708e-05
-7.78905e-11
8.65788e-05
-8.90625e-11
9.52367e-05
-1.00681e-10
0.00010476
-1.12677e-10
0.000115236
-1.24977e-10
0.00012676
-1.37444e-10
0.000139436
-1.49978e-10
0.00015338
-1.62342e-10
0.000168718
-1.74431e-10
0.000185589
-1.85861e-10
0.000204148
-1.96606e-10
0.000224563
-2.0606e-10
0.000247019
-2.14439e-10
0.000271721
-2.20783e-10
0.000298894
-2.2576e-10
0.000328783
-2.27886e-10
0.000361661
-2.2839e-10
0.000397827
-2.251e-10
0.00043761
-2.19567e-10
0.000481371
-2.08871e-10
0.000529508
-1.94247e-10
0.000582459
-1.73932e-10
0.000640705
-1.49565e-10
0.000704775
-1.21698e-10
0.000775253
-9.2304e-11
0.000852778
-6.08959e-11
0.000938056
-2.71294e-11
0.00103186
1.07456e-11
0.00113505
5.40901e-11
0.00124855
9.74193e-11
0.00124855
1.35209e-10
0.00113505
1.66499e-10
0.00103186
1.90426e-10
0.000938056
2.07327e-10
0.000852778
2.17823e-10
0.000775253
2.24463e-10
0.000704775
2.28645e-10
0.000640705
2.31971e-10
0.000582459
2.33466e-10
0.000529508
2.33922e-10
0.000481371
2.31459e-10
0.00043761
2.2737e-10
0.000397827
2.2063e-10
0.000361661
2.12512e-10
0.000328783
2.02544e-10
0.000298894
1.91684e-10
0.000271721
1.79794e-10
0.000247019
1.67506e-10
0.000224563
1.54845e-10
0.000204148
1.42195e-10
0.000185589
1.29632e-10
0.000168718
1.17377e-10
0.00015338
1.05497e-10
0.000139436
9.41081e-11
0.00012676
8.32522e-11
0.000115236
7.29776e-11
0.00010476
6.3297e-11
9.52367e-05
5.42245e-11
8.65788e-05
4.57536e-11
7.8708e-05
3.78699e-11
7.15528e-05
3.05496e-11
6.50479e-05
2.37734e-11
5.91345e-05
1.75148e-11
5.37586e-05
1.17409e-11
4.88715e-05
6.42936e-12
4.44286e-05
1.54543e-12
4.03896e-05