/*--------------------------------*- C++ -*----------------------------------*\
| =========                 |                                                 |
| \\      /  F ield         | OpenFOAM: The Open Source CFD Toolbox           |
|  \\    /   O peration     | Version:  5.x                                   |
|   \\  /    A nd           | Web:      www.OpenFOAM.org                      |
|    \\/     M anipulation  |                                                 |
\*---------------------------------------------------------------------------*/
FoamFile
{
    version     2.0;
    format      ascii;
    class       surfaceScalarField;
    location    "0";
    object      phi;
}
// * * * * * * * * * * * * * * * * * * * * * * * * * * * * * * * * * * * * * //

dimensions      [0 3 -1 0 0 0 0];

internalField   nonuniform List<scalar> 
40747
(
1.64964e-05
8.59534e-11
1.14596e-10
1.64962e-05
1.99561e-05
1.07173e-10
1.2642e-10
1.99559e-05
2.41415e-05
1.34885e-10
1.40062e-10
2.41412e-05
2.92046e-05
1.63709e-10
1.57726e-10
2.92043e-05
3.53296e-05
2.01908e-10
1.78943e-10
3.53292e-05
4.27392e-05
2.46473e-10
2.04189e-10
4.27388e-05
5.17028e-05
3.00441e-10
2.35332e-10
5.17023e-05
6.25463e-05
3.64374e-10
2.72848e-10
6.25456e-05
7.5664e-05
4.42596e-10
3.18323e-10
7.56632e-05
9.15329e-05
5.3714e-10
3.73234e-10
9.15318e-05
0.00011073
6.51516e-10
4.39725e-10
0.000110729
0.000133953
7.891e-10
5.20254e-10
0.000133951
0.000162047
9.55946e-10
6.17603e-10
0.000162045
0.000196032
1.15779e-09
7.3544e-10
0.00019603
0.000237146
1.40195e-09
8.78212e-10
0.000237143
0.000286882
1.6972e-09
1.05121e-09
0.000286878
0.000347049
2.05461e-09
1.26106e-09
0.000347045
0.000419834
2.48677e-09
1.5158e-09
0.000419829
0.000507885
3.00972e-09
1.82569e-09
0.000507879
0.000614403
3.64227e-09
2.20355e-09
0.000614396
0.00074326
4.40731e-09
2.66594e-09
0.000743251
0.000899142
5.33259e-09
3.23466e-09
0.000899132
0.00108772
6.45156e-09
3.93907e-09
0.0010877
0.00131584
7.8047e-09
4.82001e-09
0.00131583
0.00159181
9.44059e-09
5.93598e-09
0.00159179
0.00192566
1.14174e-08
7.37306e-09
0.00192563
0.00232952
1.38048e-08
9.26084e-09
0.00232949
0.00281808
1.66847e-08
1.17968e-08
0.00281805
0.00340911
2.0151e-08
1.5282e-08
0.00340907
0.0041241
2.43066e-08
2.01462e-08
0.00412405
0.00395158
2.38719e-08
1.93769e-08
0.00395154
0.00395158
2.4197e-08
2.0148e-08
0.00395154
0.00395158
2.4405e-08
2.12456e-08
0.00395154
0.00395158
2.44804e-08
2.26169e-08
0.00395154
0.00399899
2.46496e-08
2.45399e-08
0.00399894
0.00332674
2.09738e-08
2.14236e-08
0.0033267
0.0027675
1.77523e-08
1.85612e-08
0.00276747
0.00230227
1.49613e-08
1.59721e-08
0.00230224
0.00191525
1.25658e-08
1.36625e-08
0.00191523
0.00159328
1.05244e-08
1.16267e-08
0.00159327
0.00132545
8.79481e-09
9.84935e-09
0.00132543
0.00110263
7.33552e-09
8.31021e-09
0.00110262
0.000917275
6.10828e-09
6.98611e-09
0.000917264
0.000763076
5.07902e-09
5.85326e-09
0.000763068
0.0006348
4.21703e-09
4.88848e-09
0.000634793
0.000528087
3.49646e-09
4.06997e-09
0.000528081
0.000439313
2.89458e-09
3.37781e-09
0.000439308
0.000365462
2.39226e-09
2.79409e-09
0.000365458
0.000304026
1.9736e-09
2.30287e-09
0.000304023
0.000252918
1.62451e-09
1.89032e-09
0.000252915
0.000210401
1.33377e-09
1.54443e-09
0.000210399
0.000175032
1.09179e-09
1.25462e-09
0.00017503
0.000145608
8.89423e-10
1.01221e-09
0.000145607
0.000121131
7.21608e-10
8.09598e-10
0.000121129
0.000100768
5.82031e-10
6.4023e-10
0.000100767
8.38286e-05
4.64752e-10
4.99085e-10
8.38276e-05
6.97366e-05
3.67891e-10
3.81306e-10
6.97358e-05
5.80135e-05
2.87242e-10
2.83289e-10
5.80129e-05
4.82612e-05
2.20478e-10
2.00998e-10
4.82607e-05
4.01482e-05
1.64162e-10
1.32331e-10
4.01478e-05
3.33992e-05
1.16415e-10
7.53233e-11
3.33988e-05
2.77846e-05
7.85466e-11
2.86491e-11
2.77842e-05
2.31139e-05
4.6781e-11
-1.09139e-11
2.31137e-05
1.92283e-05
2.0874e-11
-4.41105e-11
1.92281e-05
1.5996e-05
1.59958e-05
1.64959e-05
1.19144e-10
1.64957e-05
3.61719e-11
1.64955e-05
7.04963e-11
1.64955e-05
-6.59384e-12
1.64953e-05
5.63887e-11
1.64953e-05
-1.06719e-11
1.64952e-05
5.34552e-11
1.64952e-05
-7.50333e-12
1.64951e-05
4.54006e-11
1.64951e-05
-8.45683e-12
1.6495e-05
3.77947e-11
1.6495e-05
-9.00983e-12
1.6495e-05
3.04047e-11
1.6495e-05
-9.24329e-12
1.64949e-05
2.26237e-11
1.64949e-05
-9.59001e-12
1.64949e-05
1.46656e-11
1.64949e-05
-9.93632e-12
1.64949e-05
7.38964e-12
1.64949e-05
-1.02318e-11
1.64949e-05
1.53887e-12
1.64949e-05
-1.02905e-11
1.64949e-05
-3.12612e-12
1.64949e-05
-1.05137e-11
1.64949e-05
-6.93058e-12
1.6495e-05
-1.0977e-11
1.6495e-05
-9.68777e-12
1.6495e-05
-1.1643e-11
1.6495e-05
-1.15508e-11
1.64951e-05
-1.28466e-11
1.64951e-05
-1.43814e-11
1.64951e-05
-1.69962e-11
1.64952e-05
-2.14673e-11
1.64952e-05
-2.827e-11
1.64953e-05
-3.92607e-11
1.64953e-05
-5.54004e-11
1.64954e-05
-7.96208e-11
1.64955e-05
-1.14495e-10
1.64957e-05
-1.64464e-10
1.6496e-05
-2.34138e-10
1.64963e-05
-3.30353e-10
1.64968e-05
-4.60574e-10
1.64974e-05
-6.34664e-10
1.64983e-05
-8.64083e-10
1.64995e-05
-1.16262e-09
1.6501e-05
-1.54645e-09
1.65031e-05
-2.03439e-09
1.65057e-05
-2.64845e-09
1.65092e-05
-3.41366e-09
1.65135e-05
-4.35892e-09
1.65191e-05
-5.51727e-09
1.6526e-05
-6.92681e-09
1.65346e-05
-8.63186e-09
1.65453e-05
-1.06829e-08
1.65584e-05
-1.31446e-08
1.65745e-05
-1.60823e-08
1.65941e-05
-1.95982e-08
1.66179e-05
-2.37861e-08
1.66467e-05
-2.88073e-08
1.66815e-05
-3.48234e-08
1.67236e-05
-4.20939e-08
1.67745e-05
-5.09263e-08
1.68363e-05
-6.17779e-08
1.68846e-05
-4.82931e-08
1.69383e-05
-5.36707e-08
1.69979e-05
-5.96119e-08
1.70641e-05
-6.62069e-08
1.71376e-05
-7.35583e-08
1.72194e-05
-8.1798e-08
1.73104e-05
-9.10932e-08
1.7412e-05
-1.01644e-07
1.75257e-05
-1.13723e-07
1.76533e-05
-1.27663e-07
1.77972e-05
-1.4392e-07
1.79603e-05
-1.63089e-07
1.81463e-05
-1.85985e-07
1.836e-05
-2.13741e-07
1.86079e-05
-2.47965e-07
1.88989e-05
-2.9103e-07
1.92454e-05
-3.46542e-07
1.96655e-05
-4.20255e-07
2.01873e-05
-5.21855e-07
2.0856e-05
-6.68841e-07
2.17519e-05
-8.95967e-07
2.30336e-05
-1.28189e-06
2.50777e-05
-2.04415e-06
2.91161e-05
-4.03853e-06
-1.52665e-05
4.43825e-05
1.99555e-05
1.24844e-10
1.99553e-05
2.61946e-11
1.99551e-05
7.43512e-11
1.9955e-05
-2.00468e-11
1.99548e-05
6.79847e-11
1.99548e-05
-2.251e-11
1.99547e-05
6.73026e-11
1.99547e-05
-2.20552e-11
1.99546e-05
5.66074e-11
1.99546e-05
-2.29647e-11
1.99545e-05
4.78539e-11
1.99545e-05
-2.31921e-11
1.99544e-05
3.91083e-11
1.99544e-05
-2.18932e-11
1.99544e-05
2.95586e-11
1.99544e-05
-2.0691e-11
1.99543e-05
1.95541e-11
1.99543e-05
-1.94394e-11
1.99543e-05
1.04049e-11
1.99543e-05
-1.81899e-11
1.99543e-05
3.24654e-12
1.99543e-05
-1.65497e-11
1.99543e-05
-2.12336e-12
1.99544e-05
-1.47911e-11
1.99544e-05
-6.15251e-12
1.99544e-05
-1.36783e-11
1.99544e-05
-8.77042e-12
1.99545e-05
-1.29035e-11
1.99545e-05
-1.0819e-11
1.99545e-05
-1.40972e-11
1.99546e-05
-1.58419e-11
1.99546e-05
-2.24598e-11
1.99546e-05
-3.14667e-11
1.99547e-05
-4.76219e-11
1.99548e-05
-7.14672e-11
1.99548e-05
-1.08087e-10
1.9955e-05
-1.61833e-10
1.99551e-05
-2.40035e-10
1.99553e-05
-3.50938e-10
1.99556e-05
-5.06105e-10
1.99561e-05
-7.19183e-10
1.99566e-05
-1.00778e-09
1.99574e-05
-1.39278e-09
1.99585e-05
-1.90009e-09
1.99599e-05
-2.5601e-09
1.99618e-05
-3.4087e-09
1.99642e-05
-4.4875e-09
1.99674e-05
-5.845e-09
1.99716e-05
-7.53696e-09
1.99769e-05
-9.62709e-09
1.99836e-05
-1.21884e-08
1.99919e-05
-1.53052e-08
2.00024e-05
-1.90748e-08
2.00153e-05
-2.361e-08
2.00312e-05
-2.90483e-08
2.00507e-05
-3.55454e-08
2.00744e-05
-4.33072e-08
2.01031e-05
-5.257e-08
2.0138e-05
-6.36545e-08
2.01801e-05
-7.69584e-08
2.0231e-05
-9.30142e-08
2.02926e-05
-1.1254e-07
2.03674e-05
-1.36513e-07
2.04258e-05
-1.06728e-07
2.04907e-05
-1.18608e-07
2.05628e-05
-1.31748e-07
2.06429e-05
-1.46324e-07
2.07318e-05
-1.62577e-07
2.08307e-05
-1.80788e-07
2.09409e-05
-2.01327e-07
2.10638e-05
-2.24641e-07
2.12013e-05
-2.51325e-07
2.13557e-05
-2.82128e-07
2.15298e-05
-3.18046e-07
2.1727e-05
-3.60408e-07
2.1952e-05
-4.11008e-07
2.22105e-05
-4.72351e-07
2.25105e-05
-5.47991e-07
2.28625e-05
-6.43165e-07
2.32816e-05
-7.65843e-07
2.37899e-05
-9.28731e-07
2.4421e-05
-1.15323e-06
2.523e-05
-1.47801e-06
2.63136e-05
-1.97982e-06
2.78639e-05
-2.83242e-06
3.03356e-05
-4.51608e-06
3.52129e-05
-8.9161e-06
-3.27407e-05
5.2687e-05
2.41408e-05
1.32227e-10
2.41405e-05
1.45519e-11
2.41402e-05
7.95808e-11
2.41401e-05
-3.54703e-11
2.41399e-05
8.1778e-11
2.41399e-05
-3.87355e-11
2.41398e-05
8.41283e-11
2.41398e-05
-3.9222e-11
2.41396e-05
7.13467e-11
2.41396e-05
-4.08646e-11
2.41395e-05
6.0414e-11
2.41395e-05
-3.99596e-11
2.41394e-05
4.96811e-11
2.41394e-05
-3.74627e-11
2.41394e-05
3.7455e-11
2.41394e-05
-3.48517e-11
2.41393e-05
2.48974e-11
2.41393e-05
-3.15118e-11
2.41393e-05
1.40972e-11
2.41393e-05
-2.77964e-11
2.41393e-05
5.48341e-12
2.41393e-05
-2.38007e-11
2.41393e-05
-8.16285e-13
2.41394e-05
-2.01598e-11
2.41394e-05
-5.40012e-12
2.41394e-05
-1.69912e-11
2.41394e-05
-7.77089e-12
2.41395e-05
-1.43085e-11
2.41395e-05
-9.69432e-12
2.41395e-05
-1.56319e-11
2.41396e-05
-1.77779e-11
2.41396e-05
-2.90892e-11
2.41397e-05
-4.35287e-11
2.41397e-05
-7.07599e-11
2.41398e-05
-1.10248e-10
2.41399e-05
-1.71826e-10
2.41401e-05
-2.61252e-10
2.41403e-05
-3.91935e-10
2.41405e-05
-5.76609e-10
2.41409e-05
-8.35229e-10
2.41414e-05
-1.18956e-09
2.41421e-05
-1.6696e-09
2.4143e-05
-2.30991e-09
2.41443e-05
-3.15356e-09
2.4146e-05
-4.25069e-09
2.41483e-05
-5.66142e-09
2.41513e-05
-7.45499e-09
2.41552e-05
-9.71201e-09
2.41602e-05
-1.2525e-08
2.41666e-05
-1.6e-08
2.41747e-05
-2.02586e-08
2.41848e-05
-2.54406e-08
2.41974e-05
-3.17079e-08
2.42131e-05
-3.92484e-08
2.42323e-05
-4.82875e-08
2.42558e-05
-5.90905e-08
2.42845e-05
-7.19886e-08
2.43193e-05
-8.73906e-08
2.43615e-05
-1.0581e-07
2.44124e-05
-1.2793e-07
2.4474e-05
-1.54614e-07
2.45485e-05
-1.87076e-07
2.46389e-05
-2.26922e-07
2.47096e-05
-1.77417e-07
2.47881e-05
-1.97164e-07
2.48754e-05
-2.19011e-07
2.49722e-05
-2.43242e-07
2.50798e-05
-2.70264e-07
2.51995e-05
-3.00537e-07
2.53328e-05
-3.34678e-07
2.54815e-05
-3.73433e-07
2.56478e-05
-4.17783e-07
2.58346e-05
-4.68985e-07
2.60452e-05
-5.28687e-07
2.62838e-05
-5.99105e-07
2.65559e-05
-6.83217e-07
2.68687e-05
-7.85187e-07
2.72315e-05
-9.10924e-07
2.76573e-05
-1.06913e-06
2.81643e-05
-1.27304e-06
2.87791e-05
-1.54379e-06
2.95425e-05
-1.91692e-06
3.05209e-05
-2.45669e-06
3.18314e-05
-3.2906e-06
3.37058e-05
-4.70716e-06
3.66926e-05
-7.50312e-06
4.25682e-05
-1.47919e-05
-5.25e-05
6.23273e-05
2.92038e-05
1.40517e-10
2.92034e-05
5.14941e-14
2.92031e-05
8.54925e-11
2.9203e-05
-5.42444e-11
2.92027e-05
9.91239e-11
2.92027e-05
-5.78731e-11
2.92025e-05
1.0391e-10
2.92026e-05
-6.01403e-11
2.92024e-05
8.87357e-11
2.92024e-05
-6.24242e-11
2.92022e-05
7.53744e-11
2.92022e-05
-6.00923e-11
2.92021e-05
6.22077e-11
2.92021e-05
-5.62059e-11
2.9202e-05
4.70233e-11
2.92021e-05
-5.1557e-11
2.9202e-05
3.16618e-11
2.9202e-05
-4.57974e-11
2.9202e-05
1.85112e-11
2.9202e-05
-3.93925e-11
2.9202e-05
8.15103e-12
2.9202e-05
-3.28223e-11
2.9202e-05
5.43549e-13
2.9202e-05
-2.68561e-11
2.92021e-05
-4.43379e-12
2.92021e-05
-2.08472e-11
2.92021e-05
-6.27945e-12
2.92022e-05
-1.62136e-11
2.92022e-05
-8.38725e-12
2.92023e-05
-1.74509e-11
2.92023e-05
-1.99236e-11
2.92024e-05
-3.71018e-11
2.92024e-05
-5.81682e-11
2.92025e-05
-9.88045e-11
2.92026e-05
-1.57144e-10
2.92027e-05
-2.48956e-10
2.92029e-05
-3.81599e-10
2.92031e-05
-5.75767e-10
2.92035e-05
-8.49656e-10
2.92039e-05
-1.23324e-09
2.92045e-05
-1.75859e-09
2.92053e-05
-2.47038e-09
2.92065e-05
-3.41935e-09
2.9208e-05
-4.66985e-09
2.92101e-05
-6.29581e-09
2.92129e-05
-8.38667e-09
2.92165e-05
-1.10448e-08
2.92212e-05
-1.439e-08
2.92272e-05
-1.85591e-08
2.9235e-05
-2.37095e-08
2.92448e-05
-3.00214e-08
2.9257e-05
-3.77018e-08
2.92723e-05
-4.69904e-08
2.92912e-05
-5.81664e-08
2.93145e-05
-7.15615e-08
2.9343e-05
-8.75734e-08
2.93777e-05
-1.06685e-07
2.94197e-05
-1.29514e-07
2.94707e-05
-1.56806e-07
2.95324e-05
-1.89591e-07
2.96069e-05
-2.29132e-07
2.9697e-05
-2.77243e-07
2.98064e-05
-3.36292e-07
2.98919e-05
-2.62932e-07
2.99869e-05
-2.92194e-07
3.00924e-05
-3.24575e-07
3.02096e-05
-3.60486e-07
3.03398e-05
-4.00534e-07
3.04845e-05
-4.45399e-07
3.06457e-05
-4.95993e-07
3.08256e-05
-5.53425e-07
3.10269e-05
-6.19145e-07
3.12528e-05
-6.95024e-07
3.15075e-05
-7.83495e-07
3.17962e-05
-8.87849e-07
3.21253e-05
-1.0125e-06
3.25036e-05
-1.16361e-06
3.29425e-05
-1.34994e-06
3.34576e-05
-1.58437e-06
3.40708e-05
-1.88653e-06
3.48144e-05
-2.2877e-06
3.57377e-05
-2.84053e-06
3.69208e-05
-3.64017e-06
3.85052e-05
-4.87533e-06
4.07704e-05
-6.97274e-06
4.43756e-05
-1.11086e-05
5.14267e-05
-2.18433e-05
-7.45163e-05
7.34428e-05
3.53286e-05
1.49947e-10
3.53282e-05
-1.70546e-11
3.53277e-05
9.20837e-11
3.53276e-05
-7.71934e-11
3.53273e-05
1.19723e-10
3.53274e-05
-8.12861e-11
3.53271e-05
1.28125e-10
3.53271e-05
-8.60609e-11
3.53269e-05
1.0948e-10
3.53269e-05
-8.83066e-11
3.53267e-05
9.35331e-11
3.53268e-05
-8.43556e-11
3.53266e-05
7.76098e-11
3.53266e-05
-7.85576e-11
3.53265e-05
5.86056e-11
3.53265e-05
-7.18275e-11
3.53264e-05
3.97427e-11
3.53265e-05
-6.30712e-11
3.53264e-05
2.37867e-11
3.53265e-05
-5.34033e-11
3.53264e-05
1.13971e-11
3.53265e-05
-4.3742e-11
3.53265e-05
2.33058e-12
3.53265e-05
-3.49019e-11
3.53265e-05
-3.2646e-12
3.53266e-05
-2.57216e-11
3.53266e-05
-4.63839e-12
3.53267e-05
-1.84522e-11
3.53267e-05
-6.82849e-12
3.53268e-05
-1.96394e-11
3.53268e-05
-2.25668e-11
3.53269e-05
-4.68295e-11
3.5327e-05
-7.57825e-11
3.53271e-05
-1.32758e-10
3.53272e-05
-2.1393e-10
3.53274e-05
-3.4222e-10
3.53276e-05
-5.27123e-10
3.53278e-05
-7.98138e-10
3.53282e-05
-1.17988e-09
3.53287e-05
-1.7147e-09
3.53295e-05
-2.44694e-09
3.53305e-05
-3.43906e-09
3.53319e-05
-4.76152e-09
3.53338e-05
-6.50417e-09
3.53363e-05
-8.7699e-09
3.53396e-05
-1.16835e-08
3.5344e-05
-1.53876e-08
3.53497e-05
-2.0049e-08
3.5357e-05
-2.58587e-08
3.53663e-05
-3.30359e-08
3.53782e-05
-4.18316e-08
3.5393e-05
-5.25343e-08
3.54115e-05
-6.5478e-08
3.54344e-05
-8.10518e-08
3.54625e-05
-9.97164e-08
3.5497e-05
-1.2203e-07
3.55389e-05
-1.48658e-07
3.55899e-05
-1.80471e-07
3.56516e-05
-2.18497e-07
3.57261e-05
-2.64184e-07
3.58163e-05
-3.19277e-07
3.59253e-05
-3.86318e-07
3.60576e-05
-4.68597e-07
3.6161e-05
-3.66378e-07
3.6276e-05
-4.07153e-07
3.64036e-05
-4.52276e-07
3.65454e-05
-5.02315e-07
3.67028e-05
-5.58121e-07
3.68779e-05
-6.20635e-07
3.70729e-05
-6.91132e-07
3.72905e-05
-7.71157e-07
3.7534e-05
-8.62726e-07
3.78073e-05
-9.68451e-07
3.81154e-05
-1.09172e-06
3.84646e-05
-1.23712e-06
3.88627e-05
-1.41079e-06
3.93203e-05
-1.62133e-06
3.98511e-05
-1.88093e-06
4.04741e-05
-2.20754e-06
4.12157e-05
-2.62848e-06
4.2115e-05
-3.1873e-06
4.32314e-05
-3.95731e-06
4.46616e-05
-5.07085e-06
4.65763e-05
-6.79035e-06
4.93115e-05
-9.70837e-06
5.36555e-05
-1.5453e-05
6.20706e-05
-3.02587e-05
-9.86097e-05
8.61637e-05
4.2738e-05
1.6236e-10
4.27375e-05
-3.76303e-11
4.2737e-05
1.00429e-10
4.27368e-05
-1.04503e-10
4.27365e-05
1.44723e-10
4.27365e-05
-1.09285e-10
4.27362e-05
1.57422e-10
4.27362e-05
-1.1668e-10
4.2736e-05
1.34605e-10
4.2736e-05
-1.19961e-10
4.27357e-05
1.15506e-10
4.27358e-05
-1.14085e-10
4.27356e-05
9.61603e-11
4.27356e-05
-1.05755e-10
4.27355e-05
7.28458e-11
4.27355e-05
-9.63211e-11
4.27354e-05
4.95424e-11
4.27354e-05
-8.39883e-11
4.27354e-05
3.04112e-11
4.27354e-05
-7.03073e-11
4.27354e-05
1.52909e-11
4.27354e-05
-5.69798e-11
4.27354e-05
4.3201e-12
4.27355e-05
-4.43663e-11
4.27355e-05
-1.76215e-12
4.27355e-05
-3.15863e-11
4.27356e-05
-2.68105e-12
4.27356e-05
-2.12026e-11
4.27357e-05
-4.97159e-12
4.27358e-05
-2.23026e-11
4.27359e-05
-2.56851e-11
4.27359e-05
-5.86418e-11
4.2736e-05
-9.70969e-11
4.27362e-05
-1.73863e-10
4.27363e-05
-2.82583e-10
4.27365e-05
-4.55081e-10
4.27367e-05
-7.03167e-10
4.27371e-05
-1.06715e-09
4.27375e-05
-1.57939e-09
4.27382e-05
-2.29718e-09
4.27391e-05
-3.27969e-09
4.27403e-05
-4.61088e-09
4.2742e-05
-6.38513e-09
4.27442e-05
-8.72309e-09
4.27473e-05
-1.17628e-08
4.27513e-05
-1.56716e-08
4.27566e-05
-2.0641e-08
4.27635e-05
-2.68948e-08
4.27723e-05
-3.46891e-08
4.27836e-05
-4.43181e-08
4.2798e-05
-5.61185e-08
4.28159e-05
-7.04774e-08
4.28383e-05
-8.78425e-08
4.2866e-05
-1.08737e-07
4.29e-05
-1.33776e-07
4.29417e-05
-1.63712e-07
4.29924e-05
-1.99433e-07
4.3054e-05
-2.42114e-07
4.31287e-05
-2.93125e-07
4.32189e-05
-3.54418e-07
4.33279e-05
-4.28326e-07
4.34598e-05
-5.18267e-07
4.36199e-05
-6.28645e-07
4.3745e-05
-4.91517e-07
4.3884e-05
-5.46216e-07
4.40384e-05
-6.06752e-07
4.42099e-05
-6.73881e-07
4.44004e-05
-7.48747e-07
4.46122e-05
-8.32611e-07
4.48481e-05
-9.27181e-07
4.51113e-05
-1.03453e-06
4.54058e-05
-1.15736e-06
4.57364e-05
-1.29919e-06
4.6109e-05
-1.46454e-06
4.65314e-05
-1.65958e-06
4.7013e-05
-1.89253e-06
4.75664e-05
-2.17493e-06
4.82084e-05
-2.52312e-06
4.89617e-05
-2.96114e-06
4.98585e-05
-3.52564e-06
5.09457e-05
-4.27494e-06
5.22951e-05
-5.3072e-06
5.40233e-05
-6.79956e-06
5.63353e-05
-9.10281e-06
5.96338e-05
-1.30074e-05
6.48543e-05
-2.06739e-05
7.48191e-05
-4.0224e-05
-0.000124399
0.000100608
5.17013e-05
1.76751e-10
5.17008e-05
-6.27551e-11
5.17001e-05
1.10542e-10
5.16999e-05
-1.37788e-10
5.16995e-05
1.74764e-10
5.16995e-05
-1.43267e-10
5.16992e-05
1.93032e-10
5.16992e-05
-1.54222e-10
5.16989e-05
1.65301e-10
5.16989e-05
-1.57856e-10
5.16986e-05
1.41881e-10
5.16986e-05
-1.49726e-10
5.16984e-05
1.18239e-10
5.16984e-05
-1.38698e-10
5.16983e-05
8.99506e-11
5.16983e-05
-1.25918e-10
5.16982e-05
6.15614e-11
5.16982e-05
-1.09246e-10
5.16981e-05
3.81704e-11
5.16982e-05
-9.09293e-11
5.16982e-05
2.00567e-11
5.16982e-05
-7.30057e-11
5.16982e-05
6.87805e-12
5.16983e-05
-5.59513e-11
5.16983e-05
-3.8738e-27
5.16984e-05
-3.86455e-11
5.16984e-05
-2.91997e-13
5.16985e-05
-2.43006e-11
5.16986e-05
-2.66442e-12
5.16987e-05
-2.56007e-11
5.16987e-05
-2.95444e-11
5.16988e-05
-7.30167e-11
5.1699e-05
-1.22975e-10
5.16991e-05
-2.23591e-10
5.16993e-05
-3.6566e-10
5.16995e-05
-5.91581e-10
5.16998e-05
-9.16174e-10
5.17002e-05
-1.39256e-09
5.17008e-05
-2.06273e-09
5.17015e-05
-3.00183e-09
5.17026e-05
-4.28705e-09
5.17041e-05
-6.02849e-09
5.17061e-05
-8.34925e-09
5.17089e-05
-1.14074e-08
5.17125e-05
-1.53833e-08
5.17174e-05
-2.04961e-08
5.17238e-05
-2.69961e-08
5.17321e-05
-3.51762e-08
5.17429e-05
-4.53713e-08
5.17566e-05
-5.79662e-08
5.17739e-05
-7.34014e-08
5.17956e-05
-9.21831e-08
5.18227e-05
-1.14897e-07
5.18561e-05
-1.42227e-07
5.18973e-05
-1.74977e-07
5.19477e-05
-2.14134e-07
5.20091e-05
-2.60855e-07
5.20837e-05
-3.16683e-07
5.21739e-05
-3.83402e-07
5.2283e-05
-4.63574e-07
5.2415e-05
-5.60241e-07
5.25745e-05
-6.77883e-07
5.27681e-05
-8.2225e-07
5.29195e-05
-6.42892e-07
5.30876e-05
-7.14434e-07
5.32744e-05
-7.93614e-07
5.34818e-05
-8.81414e-07
5.37123e-05
-9.79333e-07
5.39685e-05
-1.08902e-06
5.42538e-05
-1.2127e-06
5.45722e-05
-1.3531e-06
5.49284e-05
-1.51374e-06
5.53282e-05
-1.69922e-06
5.5779e-05
-1.91546e-06
5.62898e-05
-2.17051e-06
5.68722e-05
-2.47514e-06
5.75414e-05
-2.84439e-06
5.83177e-05
-3.29964e-06
5.92285e-05
-3.87229e-06
6.03126e-05
-4.61017e-06
6.16266e-05
-5.58941e-06
6.32569e-05
-6.93804e-06
6.53436e-05
-8.88685e-06
6.81322e-05
-1.1892e-05
7.21023e-05
-1.69781e-05
7.8351e-05
-2.69231e-05
9.00244e-05
-5.18979e-05
-0.000151257
0.000116881
6.25445e-05
1.94404e-10
6.25438e-05
-9.28336e-11
6.2543e-05
1.22719e-10
6.25428e-05
-1.78211e-10
6.25423e-05
2.11058e-10
6.25423e-05
-1.84515e-10
6.25419e-05
2.36014e-10
6.25419e-05
-1.99293e-10
6.25415e-05
2.02192e-10
6.25415e-05
-2.0393e-10
6.25412e-05
1.74031e-10
6.25413e-05
-1.93313e-10
6.2541e-05
1.45576e-10
6.2541e-05
-1.78623e-10
6.25408e-05
1.10804e-10
6.25408e-05
-1.61758e-10
6.25407e-05
7.58948e-11
6.25407e-05
-1.3992e-10
6.25407e-05
4.75841e-11
6.25407e-05
-1.15762e-10
6.25407e-05
2.57501e-11
6.25407e-05
-9.21845e-11
6.25408e-05
9.91918e-12
6.25408e-05
-6.9889e-11
6.25409e-05
2.11706e-12
6.25409e-05
-4.72085e-11
6.2541e-05
2.66251e-12
6.25411e-05
-2.81375e-11
6.25412e-05
9.35049e-14
6.25413e-05
-2.95955e-11
6.25414e-05
-3.42253e-11
6.25415e-05
-9.03207e-11
6.25417e-05
-1.54259e-10
6.25418e-05
-2.83762e-10
6.2542e-05
-4.66173e-10
6.25423e-05
-7.56761e-10
6.25427e-05
-1.17383e-09
6.25432e-05
-1.78623e-09
6.25438e-05
-2.64739e-09
6.25448e-05
-3.85425e-09
6.25461e-05
-5.50569e-09
6.25479e-05
-7.74332e-09
6.25503e-05
-1.07253e-08
6.25536e-05
-1.46545e-08
6.25581e-05
-1.9763e-08
6.2564e-05
-2.63323e-08
6.25717e-05
-3.46838e-08
6.25818e-05
-4.51942e-08
6.25948e-05
-5.82934e-08
6.26113e-05
-7.44762e-08
6.26323e-05
-9.43084e-08
6.26586e-05
-1.1844e-07
6.26913e-05
-1.47624e-07
6.27318e-05
-1.82739e-07
6.27816e-05
-2.24818e-07
6.28426e-05
-2.7513e-07
6.29169e-05
-3.35156e-07
6.3007e-05
-4.06888e-07
6.31162e-05
-4.92607e-07
6.32482e-05
-5.95616e-07
6.34078e-05
-7.19812e-07
6.36008e-05
-8.70961e-07
6.3835e-05
-1.05644e-06
6.4018e-05
-8.25999e-07
6.42215e-05
-9.17914e-07
6.44474e-05
-1.01964e-06
6.46983e-05
-1.13244e-06
6.4977e-05
-1.25824e-06
6.52869e-05
-1.39916e-06
6.5632e-05
-1.55805e-06
6.60171e-05
-1.73841e-06
6.64479e-05
-1.94477e-06
6.69315e-05
-2.18302e-06
6.74766e-05
-2.46078e-06
6.80942e-05
-2.78837e-06
6.87985e-05
-3.1796e-06
6.96077e-05
-3.6538e-06
7.05461e-05
-4.23836e-06
7.16469e-05
-4.97355e-06
7.29569e-05
-5.92066e-06
7.4544e-05
-7.17716e-06
7.65121e-05
-8.9068e-06
7.90289e-05
-1.14043e-05
8.23867e-05
-1.52506e-05
8.71513e-05
-2.17434e-05
9.45868e-05
-3.43593e-05
0.000108063
-6.53746e-05
-0.00017828
0.000135085
7.56618e-05
2.16004e-10
7.5661e-05
-1.29319e-10
7.566e-05
1.37499e-10
7.56598e-05
-2.27096e-10
7.56591e-05
2.55161e-10
7.56592e-05
-2.34582e-10
7.56586e-05
2.88139e-10
7.56587e-05
-2.5392e-10
7.56582e-05
2.46737e-10
7.56582e-05
-2.59698e-10
7.56579e-05
2.1269e-10
7.56579e-05
-2.45592e-10
7.56576e-05
1.78243e-10
7.56576e-05
-2.26828e-10
7.56574e-05
1.35827e-10
7.56574e-05
-2.05018e-10
7.56572e-05
9.33937e-11
7.56573e-05
-1.76939e-10
7.56572e-05
5.90033e-11
7.56572e-05
-1.45846e-10
7.56572e-05
3.26717e-11
7.56573e-05
-1.15421e-10
7.56573e-05
1.36993e-11
7.56574e-05
-8.66885e-11
7.56574e-05
4.68958e-12
7.56575e-05
-5.74884e-11
7.56576e-05
6.14441e-12
7.56577e-05
-3.28038e-11
7.56578e-05
3.40133e-12
7.56579e-05
-3.43808e-11
7.56581e-05
-3.98472e-11
7.56582e-05
-1.11286e-10
7.56584e-05
-1.92129e-10
7.56586e-05
-3.56528e-10
7.56588e-05
-5.87761e-10
7.56592e-05
-9.56565e-10
7.56596e-05
-1.48555e-09
7.56602e-05
-2.26246e-09
7.5661e-05
-3.35468e-09
7.56621e-05
-4.88542e-09
7.56637e-05
-6.97989e-09
7.56659e-05
-9.81777e-09
7.56689e-05
-1.35994e-08
7.56729e-05
-1.85825e-08
7.56782e-05
-2.50611e-08
7.56854e-05
-3.33921e-08
7.56947e-05
-4.39835e-08
7.57069e-05
-5.73127e-08
7.57226e-05
-7.39249e-08
7.57427e-05
-9.44478e-08
7.5768e-05
-1.19599e-07
7.57998e-05
-1.50203e-07
7.58394e-05
-1.87213e-07
7.58884e-05
-2.31746e-07
7.59487e-05
-2.85108e-07
7.60224e-05
-3.48913e-07
7.61123e-05
-4.25034e-07
7.62213e-05
-5.16003e-07
7.63534e-05
-6.24705e-07
7.6513e-05
-7.55337e-07
7.67061e-05
-9.12833e-07
7.69396e-05
-1.10451e-06
7.72228e-05
-1.33972e-06
7.74442e-05
-1.04748e-06
7.76903e-05
-1.16403e-06
7.79636e-05
-1.29303e-06
7.8267e-05
-1.43606e-06
7.86041e-05
-1.59558e-06
7.8979e-05
-1.77425e-06
7.93963e-05
-1.97571e-06
7.9862e-05
-2.20438e-06
8.0383e-05
-2.466e-06
8.09677e-05
-2.76803e-06
8.16268e-05
-3.12013e-06
8.23736e-05
-3.53536e-06
8.32249e-05
-4.0312e-06
8.42029e-05
-4.6321e-06
8.53369e-05
-5.37272e-06
8.66668e-05
-6.30393e-06
8.82487e-05
-7.50316e-06
9.01642e-05
-9.09336e-06
9.25374e-05
-1.12808e-05
9.55678e-05
-1.44356e-05
9.96007e-05
-1.92843e-05
0.000105294
-2.74374e-05
0.000114067
-4.31327e-05
0.000129323
-8.06314e-05
-0.000204296
0.000155339
9.15301e-05
2.41787e-10
9.15292e-05
-1.73397e-10
9.1528e-05
1.5531e-10
9.15277e-05
-2.86279e-10
9.15269e-05
3.08484e-10
9.1527e-05
-2.94847e-10
9.15264e-05
3.51272e-10
9.15264e-05
-3.20028e-10
9.15258e-05
3.00747e-10
9.15259e-05
-3.27044e-10
9.15254e-05
2.59645e-10
9.15254e-05
-3.09027e-10
9.15251e-05
2.17868e-10
9.15251e-05
-2.85183e-10
9.15248e-05
1.66181e-10
9.15248e-05
-2.57374e-10
9.15246e-05
1.14584e-10
9.15247e-05
-2.21778e-10
9.15246e-05
7.28685e-11
9.15246e-05
-1.82129e-10
9.15246e-05
4.10519e-11
9.15247e-05
-1.43562e-10
9.15247e-05
1.82041e-11
9.15248e-05
-1.07103e-10
9.15249e-05
7.79229e-12
9.1525e-05
-6.9993e-11
9.15251e-05
1.03127e-11
9.15252e-05
-3.8473e-11
9.15253e-05
7.35714e-12
9.15255e-05
-4.02412e-11
9.15256e-05
-4.67357e-11
9.15258e-05
-1.36641e-10
9.1526e-05
-2.38e-10
9.15263e-05
-4.44629e-10
9.15266e-05
-7.34872e-10
9.1527e-05
-1.19833e-09
9.15275e-05
-1.86271e-09
9.15282e-05
-2.83859e-09
9.15292e-05
-4.21032e-09
9.15306e-05
-6.13279e-09
9.15325e-05
-8.76315e-09
9.15351e-05
-1.23271e-08
9.15387e-05
-1.70762e-08
9.15435e-05
-2.3334e-08
9.15501e-05
-3.14699e-08
9.15587e-05
-4.19321e-08
9.157e-05
-5.52327e-08
9.15848e-05
-7.19716e-08
9.16037e-05
-9.28334e-08
9.1628e-05
-1.18606e-07
9.16586e-05
-1.50191e-07
9.16971e-05
-1.88623e-07
9.1745e-05
-2.35101e-07
9.18042e-05
-2.91025e-07
9.18772e-05
-3.58036e-07
9.19663e-05
-4.38161e-07
9.2075e-05
-5.33751e-07
9.22069e-05
-6.47988e-07
9.23667e-05
-7.8449e-07
9.25598e-05
-9.48532e-07
9.27933e-05
-1.1463e-06
9.30757e-05
-1.387e-06
9.34184e-05
-1.68235e-06
9.36861e-05
-1.31536e-06
9.39837e-05
-1.4617e-06
9.43142e-05
-1.62367e-06
9.46812e-05
-1.80325e-06
9.50889e-05
-2.00352e-06
9.55422e-05
-2.22784e-06
9.60469e-05
-2.48075e-06
9.661e-05
-2.7678e-06
9.72398e-05
-3.09619e-06
9.79467e-05
-3.47528e-06
9.87435e-05
-3.91715e-06
9.9646e-05
-4.43818e-06
0.000100675
-5.06026e-06
0.000101856
-5.81398e-06
0.000103226
-6.74268e-06
0.000104831
-7.90993e-06
0.00010674
-9.41234e-06
0.000109049
-1.14031e-05
0.000111905
-1.41383e-05
0.000115545
-1.80764e-05
0.000120371
-2.41108e-05
0.00012713
-3.41982e-05
0.000137356
-5.33587e-05
0.000154187
-9.74638e-05
-0.000227928
0.000177818
0.000110727
2.73152e-10
0.000110725
-2.26671e-10
0.000110724
1.76854e-10
0.000110724
-3.57795e-10
0.000110723
3.73048e-10
0.000110723
-3.6783e-10
0.000110722
4.2746e-10
0.000110722
-3.99922e-10
0.000110721
3.66072e-10
0.000110721
-4.08546e-10
0.000110721
3.16434e-10
0.000110721
-3.85777e-10
0.00011072
2.65804e-10
0.00011072
-3.5579e-10
0.00011072
2.0288e-10
0.00011072
-3.20767e-10
0.00011072
1.40151e-10
0.00011072
-2.76009e-10
0.00011072
8.95799e-11
0.00011072
-2.26099e-10
0.00011072
5.11875e-11
0.00011072
-1.77582e-10
0.00011072
2.37263e-11
0.00011072
-1.3182e-10
0.00011072
1.14902e-11
0.00011072
-8.51155e-11
0.00011072
1.53725e-11
0.000110721
-4.53327e-11
0.000110721
1.21537e-11
0.000110721
-4.73609e-11
0.000110721
-5.51381e-11
0.000110721
-1.67387e-10
0.000110722
-2.93511e-10
0.000110722
-5.5129e-10
0.000110722
-9.12917e-10
0.000110723
-1.49081e-09
0.000110723
-2.31896e-09
0.000110724
-3.53556e-09
0.000110725
-5.24535e-09
0.000110727
-7.64171e-09
0.000110729
-1.09203e-08
0.000110733
-1.53625e-08
0.000110737
-2.12818e-08
0.000110743
-2.90815e-08
0.000110751
-3.92221e-08
0.000110761
-5.2262e-08
0.000110775
-6.88398e-08
0.000110793
-8.9703e-08
0.000110816
-1.15705e-07
0.000110845
-1.47828e-07
0.000110882
-1.87195e-07
0.000110928
-2.35096e-07
0.000110986
-2.93026e-07
0.000111058
-3.62728e-07
0.000111146
-4.46247e-07
0.000111254
-5.46113e-07
0.000111386
-6.65249e-07
0.000111545
-8.07628e-07
0.000111738
-9.77752e-07
0.000111972
-1.1822e-06
0.000112254
-1.42868e-06
0.000112596
-1.72865e-06
0.00011301
-2.09672e-06
0.000113334
-1.63932e-06
0.000113694
-1.82168e-06
0.000114094
-2.0235e-06
0.000114537
-2.24727e-06
0.00011503
-2.49679e-06
0.000115578
-2.77626e-06
0.000116189
-3.09132e-06
0.000116869
-3.44889e-06
0.000117631
-3.8579e-06
0.000118485
-4.33001e-06
0.000119448
-4.8802e-06
0.000120538
-5.52883e-06
0.00012178
-6.30306e-06
0.000123207
-7.24081e-06
0.000124859
-8.39575e-06
0.000126795
-9.84652e-06
0.000129095
-1.17124e-05
0.000131872
-1.41819e-05
0.000135302
-1.75693e-05
0.000139658
-2.24334e-05
0.0001454
-2.98533e-05
0.000153352
-4.21512e-05
0.000165068
-6.50765e-05
0.000183022
-0.000115418
-0.000247719
0.000202812
0.000133949
3.11306e-10
0.000133948
-2.91122e-10
0.000133946
2.03042e-10
0.000133945
-4.44174e-10
0.000133944
4.51109e-10
0.000133944
-4.56e-10
0.000133943
5.19776e-10
0.000133943
-4.96726e-10
0.000133943
4.45072e-10
0.000133943
-5.07157e-10
0.000133942
3.85228e-10
0.000133942
-4.7859e-10
0.000133941
3.2378e-10
0.000133942
-4.41114e-10
0.000133941
2.47387e-10
0.000133941
-3.97416e-10
0.000133941
1.71161e-10
0.000133941
-3.41657e-10
0.000133941
1.09872e-10
0.000133941
-2.79314e-10
0.000133941
6.34941e-11
0.000133941
-2.1874e-10
0.000133941
3.03901e-11
0.000133941
-1.61762e-10
0.000133941
1.60014e-11
0.000133941
-1.03529e-10
0.000133942
2.1433e-11
0.000133942
-5.37526e-11
0.000133942
1.78318e-11
0.000133942
-5.60449e-11
0.000133942
-6.53938e-11
0.000133943
-2.04689e-10
0.000133943
-3.60811e-10
0.000133943
-6.80411e-10
0.000133944
-1.12838e-09
0.000133944
-1.84475e-09
0.000133945
-2.87099e-09
0.000133946
-4.37871e-09
0.000133948
-6.49744e-09
0.00013395
-9.46696e-09
0.000133952
-1.35296e-08
0.000133956
-1.90341e-08
0.000133961
-2.63688e-08
0.000133969
-3.60335e-08
0.000133978
-4.85987e-08
0.000133991
-6.47564e-08
0.000134007
-8.5298e-08
0.000134029
-1.1115e-07
0.000134057
-1.43369e-07
0.000134092
-1.83172e-07
0.000134137
-2.31951e-07
0.000134193
-2.91305e-07
0.000134263
-3.63084e-07
0.00013435
-4.49451e-07
0.000134457
-5.52937e-07
0.000134587
-6.76676e-07
0.000134746
-8.2429e-07
0.000134939
-1.0007e-06
0.000135173
-1.21149e-06
0.000135455
-1.46479e-06
0.000135797
-1.77017e-06
0.00013621
-2.1418e-06
0.000136711
-2.5978e-06
0.000137102
-2.03103e-06
0.000137538
-2.25693e-06
0.000138021
-2.50691e-06
0.000138557
-2.78406e-06
0.000139153
-3.09307e-06
0.000139816
-3.43914e-06
0.000140553
-3.82924e-06
0.000141376
-4.27192e-06
0.000142295
-4.77819e-06
0.000143327
-5.36245e-06
0.00014449
-6.04319e-06
0.000145806
-6.84546e-06
0.000147306
-7.80271e-06
0.000149026
-8.96155e-06
0.000151017
-1.03879e-05
0.000153348
-1.2178e-05
0.000156112
-1.44775e-05
0.000159445
-1.75158e-05
0.000163548
-2.16732e-05
0.000168732
-2.76194e-05
0.000175508
-3.66304e-05
0.000184739
-5.13832e-05
0.000197853
-7.81916e-05
0.000216179
-0.000133745
-0.000262335
0.000230794
0.000162042
3.57633e-10
0.00016204
-3.68829e-10
0.000162038
2.34816e-10
0.000162037
-5.48733e-10
0.000162036
5.45652e-10