/*--------------------------------*- C++ -*----------------------------------*\
| =========                 |                                                 |
| \\      /  F ield         | OpenFOAM: The Open Source CFD Toolbox           |
|  \\    /   O peration     | Version:  5.x                                   |
|   \\  /    A nd           | Web:      www.OpenFOAM.org                      |
|    \\/     M anipulation  |                                                 |
\*---------------------------------------------------------------------------*/
FoamFile
{
    version     2.0;
    format      ascii;
    class       volVectorField;
    location    "0";
    object      U;
}
// * * * * * * * * * * * * * * * * * * * * * * * * * * * * * * * * * * * * * //

dimensions      [0 1 -1 0 0 0 0];

internalField   nonuniform List<vector> 
20540
(
(48.9999 1.73196e-08 0)
(48.9995 7.69707e-08 0)
(48.9999 3.8915e-08 0)
(48.9995 1.61883e-07 0)
(48.9999 4.87747e-08 0)
(48.9995 1.78987e-07 0)
(48.9999 6.01668e-08 0)
(48.9995 2.00015e-07 0)
(48.9999 7.36719e-08 0)
(48.9995 2.2613e-07 0)
(48.9999 9.03489e-08 0)
(48.9995 2.57337e-07 0)
(48.9999 1.10203e-07 0)
(48.9995 2.95212e-07 0)
(48.9999 1.33961e-07 0)
(48.9995 3.41328e-07 0)
(48.9999 1.62605e-07 0)
(48.9995 3.97071e-07 0)
(48.9999 1.97417e-07 0)
(48.9995 4.64497e-07 0)
(48.9999 2.39515e-07 0)
(48.9995 5.46039e-07 0)
(48.9999 2.90285e-07 0)
(48.9995 6.44787e-07 0)
(48.9999 3.51627e-07 0)
(48.9995 7.64262e-07 0)
(48.9999 4.25918e-07 0)
(48.9995 9.08796e-07 0)
(48.9999 5.15789e-07 0)
(48.9995 1.08384e-06 0)
(48.9999 6.24481e-07 0)
(48.9995 1.29593e-06 0)
(48.9999 7.5599e-07 0)
(48.9995 1.55307e-06 0)
(48.9999 9.15089e-07 0)
(48.9995 1.86513e-06 0)
(48.9999 1.10754e-06 0)
(48.9995 2.24437e-06 0)
(48.9999 1.34038e-06 0)
(48.9995 2.70631e-06 0)
(48.9999 1.62199e-06 0)
(48.9995 3.27068e-06 0)
(48.9999 1.96259e-06 0)
(48.9995 3.96324e-06 0)
(48.9999 2.37451e-06 0)
(48.9995 4.81836e-06 0)
(48.9999 2.87264e-06 0)
(48.9995 5.88319e-06 0)
(48.9999 3.47493e-06 0)
(48.9995 7.22445e-06 0)
(48.9999 4.2029e-06 0)
(48.9995 8.93926e-06 0)
(48.9999 5.0823e-06 0)
(48.9995 1.11725e-05 0)
(48.9999 6.14364e-06 0)
(48.9995 1.41437e-05 0)
(48.9999 7.4224e-06 0)
(48.9995 1.8188e-05 0)
(48.9999 8.95822e-06 0)
(48.9995 2.3796e-05 0)
(48.9999 9.70799e-06 0)
(48.9995 2.65464e-05 0)
(48.9999 9.68591e-06 0)
(48.9995 2.65476e-05 0)
(48.9999 9.79331e-06 0)
(48.9995 2.78027e-05 0)
(48.9999 9.85042e-06 0)
(48.9995 2.9461e-05 0)
(48.9999 9.89972e-06 0)
(48.9995 3.16737e-05 0)
(48.9999 9.19313e-06 0)
(48.9995 3.08721e-05 0)
(48.9999 7.80333e-06 0)
(48.9995 2.68565e-05 0)
(48.9999 6.59181e-06 0)
(48.9995 2.31949e-05 0)
(48.9999 5.54672e-06 0)
(48.9995 1.99047e-05 0)
(48.9999 4.65269e-06 0)
(48.9995 1.6986e-05 0)
(48.9999 3.89284e-06 0)
(48.9995 1.44248e-05 0)
(48.9999 3.25027e-06 0)
(48.9995 1.21972e-05 0)
(48.9999 2.70893e-06 0)
(48.9995 1.0274e-05 0)
(48.9999 2.25424e-06 0)
(48.9995 8.62379e-06 0)
(48.9999 1.87316e-06 0)
(48.9995 7.21488e-06 0)
(48.9999 1.55427e-06 0)
(48.9995 6.0171e-06 0)
(48.9999 1.2878e-06 0)
(48.9995 5.00243e-06 0)
(48.9999 1.0653e-06 0)
(48.9995 4.14547e-06 0)
(48.9999 8.79724e-07 0)
(48.9995 3.42347e-06 0)
(48.9999 7.25021e-07 0)
(48.9995 2.81643e-06 0)
(48.9999 5.96095e-07 0)
(48.9995 2.30701e-06 0)
(48.9999 4.88752e-07 0)
(48.9995 1.88003e-06 0)
(48.9999 3.99215e-07 0)
(48.9995 1.52256e-06 0)
(48.9999 3.24623e-07 0)
(48.9995 1.22365e-06 0)
(48.9999 2.62684e-07 0)
(48.9995 9.73803e-07 0)
(48.9999 2.10927e-07 0)
(48.9995 7.65241e-07 0)
(48.9999 1.67778e-07 0)
(48.9995 5.9133e-07 0)
(48.9999 1.3201e-07 0)
(48.9995 4.46387e-07 0)
(48.9999 1.02306e-07 0)
(48.9995 3.2528e-07 0)
(48.9999 7.7505e-08 0)
(48.9995 2.23887e-07 0)
(48.9999 5.65364e-08 0)
(48.9995 1.39475e-07 0)
(48.9999 3.92849e-08 0)
(48.9995 6.98349e-08 0)
(48.9999 2.52536e-08 0)
(48.9995 1.19121e-08 0)
(48.9999 1.36325e-08 0)
(48.9995 -3.69581e-08 0)
(48.9999 4.20611e-09 0)
(48.9995 -2.96276e-08 0)
(48.9987 8.63658e-08 0)
(48.998 2.72126e-08 0)
(48.9974 5.50421e-08 0)
(48.9971 -5.34313e-09 0)
(48.9968 4.74218e-08 0)
(48.9966 -9.31448e-09 0)
(48.9964 4.84211e-08 0)
(48.9963 -7.05388e-09 0)
(48.9961 4.4296e-08 0)
(48.996 -8.56326e-09 0)
(48.9959 3.97184e-08 0)
(48.9957 -9.82667e-09 0)
(48.9956 3.4416e-08 0)
(48.9956 -1.08586e-08 0)
(48.9955 2.75829e-08 0)
(48.9954 -1.21346e-08 0)
(48.9954 1.92591e-08 0)
(48.9953 -1.35422e-08 0)
(48.9953 1.04524e-08 0)
(48.9953 -1.50202e-08 0)
(48.9953 2.34451e-09 0)
(48.9953 -1.62711e-08 0)
(48.9954 -5.12997e-09 0)
(48.9954 -1.79058e-08 0)
(48.9954 -1.225e-08 0)
(48.9955 -2.01363e-08 0)
(48.9955 -1.84437e-08 0)
(48.9956 -2.30049e-08 0)
(48.9957 -2.36862e-08 0)
(48.9957 -2.73402e-08 0)
(48.9958 -3.17645e-08 0)
(48.9959 -3.89603e-08 0)
(48.996 -5.10713e-08 0)
(48.9961 -6.97998e-08 0)
(48.9963 -1.00604e-07 0)
(48.9965 -1.47333e-07 0)
(48.9967 -2.19757e-07 0)
(48.9971 -3.27967e-07 0)
(48.9975 -4.88926e-07 0)
(48.9981 -7.22395e-07 0)
(48.999 -1.05781e-06 0)
(49.0002 -1.53059e-06 0)
(49.0019 -2.18894e-06 0)
(49.0042 -3.09296e-06 0)
(49.0072 -4.31904e-06 0)
(49.0112 -5.9623e-06 0)
(49.0166 -8.14028e-06 0)
(49.0236 -1.09983e-05 0)
(49.0326 -1.47124e-05 0)
(49.0442 -1.94972e-05 0)
(49.0589 -2.56122e-05 0)
(49.0774 -3.33721e-05 0)
(49.1005 -4.31603e-05 0)
(49.1292 -5.54366e-05 0)
(49.1646 -7.0792e-05 0)
(49.208 -8.98907e-05 0)
(49.2609 -0.000113687 0)
(49.3254 -0.000143202 0)
(49.4035 -0.000179993 0)
(49.4979 -0.000225816 0)
(49.6122 -0.00028329 0)
(49.7503 -0.0003557 0)
(49.9177 -0.00044782 0)
(50.0811 -0.000546689 0)
(50.2326 -0.000638821 0)
(50.4008 -0.00074604 0)
(50.5876 -0.000871202 0)
(50.7951 -0.00101773 0)
(51.0258 -0.00118996 0)
(51.2825 -0.00139335 0)
(51.5686 -0.00163471 0)
(51.8883 -0.00192308 0)
(52.2467 -0.00226987 0)
(52.65 -0.00269055 0)
(53.1058 -0.00320577 0)
(53.6242 -0.0038439 0)
(54.2178 -0.00464482 0)
(54.9034 -0.00566577 0)
(55.7038 -0.00699186 0)
(56.6505 -0.00875382 0)
(57.7891 -0.011162 0)
(59.188 -0.0145735 0)
(60.9561 -0.0196392 0)
(63.2798 -0.0276618 0)
(66.5139 -0.0416125 0)
(71.4533 -0.0697708 0)
(80.4868 -0.144934 0)
(109.158 -0.576068 0)
(48.9987 1.76863e-07 0)
(48.998 4.69192e-08 0)
(48.9974 1.13094e-07 0)
(48.9971 -2.15875e-08 0)
(48.9968 1.04596e-07 0)
(48.9966 -2.89612e-08 0)
(48.9964 1.09386e-07 0)
(48.9963 -2.7788e-08 0)
(48.9961 9.95261e-08 0)
(48.996 -3.1817e-08 0)
(48.9959 9.0008e-08 0)
(48.9957 -3.51214e-08 0)
(48.9956 7.86837e-08 0)
(48.9956 -3.65778e-08 0)
(48.9955 6.36209e-08 0)
(48.9954 -3.83157e-08 0)
(48.9954 4.49378e-08 0)
(48.9953 -4.00361e-08 0)
(48.9953 2.51699e-08 0)
(48.9953 -4.17227e-08 0)
(48.9953 7.29072e-09 0)
(48.9953 -4.24392e-08 0)
(48.9954 -8.6144e-09 0)
(48.9954 -4.30964e-08 0)
(48.9954 -2.31248e-08 0)
(48.9955 -4.5228e-08 0)
(48.9955 -3.5141e-08 0)
(48.9956 -4.85003e-08 0)
(48.9957 -4.58716e-08 0)
(48.9957 -5.73417e-08 0)
(48.9958 -6.6755e-08 0)
(48.9959 -9.04447e-08 0)
(48.996 -1.25931e-07 0)
(48.9961 -1.8738e-07 0)
(48.9963 -2.83736e-07 0)
(48.9965 -4.34782e-07 0)
(48.9967 -6.66423e-07 0)
(48.9971 -1.01554e-06 0)
(48.9975 -1.53222e-06 0)
(48.9981 -2.2839e-06 0)
(48.999 -3.36069e-06 0)
(49.0002 -4.87969e-06 0)
(49.0019 -6.99259e-06 0)
(49.0042 -9.89429e-06 0)
(49.0072 -1.38296e-05 0)
(49.0112 -1.91044e-05 0)
(49.0166 -2.60963e-05 0)
(49.0236 -3.52711e-05 0)
(49.0326 -4.71957e-05 0)
(49.0442 -6.25586e-05 0)
(49.0589 -8.21927e-05 0)
(49.0774 -0.00010711 0)
(49.1005 -0.000138536 0)
(49.1292 -0.000177956 0)
(49.1646 -0.000227236 0)
(49.208 -0.000288569 0)
(49.2609 -0.000364909 0)
(49.3254 -0.000459694 0)
(49.4035 -0.000577719 0)
(49.4979 -0.000724861 0)
(49.6122 -0.000909272 0)
(49.7503 -0.00114175 0)
(49.9177 -0.00143739 0)
(50.0811 -0.00175487 0)
(50.2326 -0.00205057 0)
(50.4008 -0.00239485 0)
(50.5876 -0.00279664 0)
(50.7951 -0.0032671 0)
(51.0258 -0.00381997 0)
(51.2825 -0.00447283 0)
(51.5686 -0.00524758 0)
(51.8883 -0.00617304 0)
(52.2467 -0.00728615 0)
(52.65 -0.00863638 0)
(53.1058 -0.0102902 0)
(53.6242 -0.0123386 0)
(54.2177 -0.0149095 0)
(54.9033 -0.0181868 0)
(55.7037 -0.0224436 0)
(56.6504 -0.0280994 0)
(57.789 -0.0358291 0)
(59.1879 -0.0467791 0)
(60.9558 -0.063038 0)
(63.2793 -0.0887861 0)
(66.5129 -0.133558 0)
(71.4507 -0.223913 0)
(80.473 -0.464914 0)
(107.914 -1.81151 0)
(48.9987 1.86347e-07 0)
(48.998 3.06542e-08 0)
(48.9974 1.20187e-07 0)
(48.9971 -4.49867e-08 0)
(48.9968 1.25948e-07 0)
(48.9966 -5.34552e-08 0)
(48.9964 1.3717e-07 0)
(48.9963 -5.76067e-08 0)
(48.9961 1.24841e-07 0)
(48.996 -6.46327e-08 0)
(48.9959 1.13779e-07 0)
(48.9957 -6.88771e-08 0)
(48.9956 1.00503e-07 0)
(48.9956 -6.97287e-08 0)
(48.9955 8.17033e-08 0)
(48.9954 -7.02802e-08 0)
(48.9954 5.83743e-08 0)
(48.9953 -6.94414e-08 0)
(48.9953 3.46574e-08 0)
(48.9953 -6.75073e-08 0)
(48.9953 1.33003e-08 0)
(48.9953 -6.38011e-08 0)
(48.9954 -4.82396e-09 0)
(48.9954 -5.95246e-08 0)
(48.9954 -2.04197e-08 0)
(48.9955 -5.62605e-08 0)
(48.9955 -3.14916e-08 0)
(48.9956 -5.37668e-08 0)
(48.9957 -4.20648e-08 0)
(48.9957 -6.32695e-08 0)
(48.9958 -7.4257e-08 0)
(48.9959 -1.18166e-07 0)
(48.996 -1.78416e-07 0)
(48.9961 -2.9229e-07 0)
(48.9963 -4.65638e-07 0)
(48.9965 -7.44406e-07 0)
(48.9967 -1.16773e-06 0)
(48.9971 -1.81026e-06 0)
(48.9975 -2.75746e-06 0)
(48.9981 -4.13847e-06 0)
(48.999 -6.11195e-06 0)
(49.0002 -8.89758e-06 0)
(49.0019 -1.27705e-05 0)
(49.0042 -1.80894e-05 0)
(49.0072 -2.53014e-05 0)
(49.0112 -3.49695e-05 0)
(49.0166 -4.7786e-05 0)
(49.0236 -6.46042e-05 0)
(49.0326 -8.64642e-05 0)
(49.0442 -0.000114629 0)
(49.0589 -0.000150625 0)
(49.0774 -0.000196306 0)
(49.1005 -0.000253919 0)
(49.1292 -0.000326191 0)
(49.1646 -0.000416503 0)
(49.208 -0.00052896 0)
(49.2609 -0.000668821 0)
(49.3254 -0.000842619 0)
(49.4035 -0.00105885 0)
(49.4979 -0.00132862 0)
(49.6122 -0.00166653 0)
(49.7503 -0.00209269 0)
(49.9177 -0.0026345 0)
(50.0811 -0.00321659 0)
(50.2326 -0.00375851 0)
(50.4008 -0.00438973 0)
(50.5876 -0.00512621 0)
(50.7951 -0.00598867 0)
(51.0258 -0.00700208 0)
(51.2825 -0.00819868 0)
(51.5686 -0.00961871 0)
(51.8883 -0.0113147 0)
(52.2467 -0.0133549 0)
(52.6499 -0.0158295 0)
(53.1058 -0.0188608 0)
(53.6241 -0.0226153 0)
(54.2177 -0.0273277 0)
(54.9032 -0.0333348 0)
(55.7036 -0.041137 0)
(56.6502 -0.0515033 0)
(57.7887 -0.0656701 0)
(59.1874 -0.0857383 0)
(60.9551 -0.115535 0)
(63.2779 -0.162717 0)
(66.5102 -0.244749 0)
(71.4436 -0.410239 0)
(80.4375 -0.85083 0)
(106.453 -3.21649 0)
(48.9987 1.97709e-07 0)
(48.998 1.09864e-08 0)
(48.9974 1.28886e-07 0)
(48.9971 -7.26978e-08 0)
(48.9968 1.52135e-07 0)
(48.9966 -8.43202e-08 0)
(48.9964 1.7033e-07 0)
(48.9963 -9.34104e-08 0)
(48.9961 1.56187e-07 0)
(48.996 -1.04589e-07 0)
(48.9959 1.427e-07 0)
(48.9957 -1.09123e-07 0)
(48.9956 1.2665e-07 0)
(48.9956 -1.10038e-07 0)
(48.9955 1.02996e-07 0)
(48.9954 -1.09336e-07 0)
(48.9954 7.42742e-08 0)
(48.9953 -1.05365e-07 0)
(48.9953 4.61235e-08 0)
(48.9953 -9.86324e-08 0)
(48.9953 2.07725e-08 0)
(48.9953 -8.95309e-08 0)
(48.9954 -4.47561e-10 0)
(48.9954 -8.00725e-08 0)
(48.9954 -1.73818e-08 0)
(48.9955 -6.94112e-08 0)
(48.9955 -2.67493e-08 0)
(48.9956 -6.03072e-08 0)
(48.9957 -3.70783e-08 0)
(48.9957 -7.0407e-08 0)
(48.9958 -8.32723e-08 0)
(48.9959 -1.51729e-07 0)
(48.996 -2.4194e-07 0)
(48.9961 -4.18662e-07 0)
(48.9963 -6.85181e-07 0)
(48.9965 -1.11903e-06 0)
(48.9967 -1.7743e-06 0)
(48.9971 -2.77196e-06 0)
(48.9975 -4.24008e-06 0)
(48.9981 -6.38192e-06 0)
(48.999 -9.44021e-06 0)
(49.0002 -1.37581e-05 0)
(49.0019 -1.97601e-05 0)
(49.0042 -2.80037e-05 0)
(49.0072 -3.91792e-05 0)
(49.0112 -5.41619e-05 0)
(49.0166 -7.40241e-05 0)
(49.0236 -0.000100089 0)
(49.0326 -0.000133968 0)
(49.0442 -0.000177619 0)
(49.0589 -0.000233409 0)
(49.0774 -0.000304209 0)
(49.1005 -0.000393501 0)
(49.1292 -0.000505515 0)
(49.1646 -0.000645465 0)
(49.208 -0.000819767 0)
(49.2609 -0.00103647 0)
(49.3254 -0.00130585 0)
(49.4035 -0.00164088 0)
(49.4979 -0.002059 0)
(49.6122 -0.00258259 0)
(49.7503 -0.00324308 0)
(49.9177 -0.00408267 0)
(50.0811 -0.00498485 0)
(50.2325 -0.00582464 0)
(50.4008 -0.00680296 0)
(50.5876 -0.00794432 0)
(50.7951 -0.00928098 0)
(51.0258 -0.0108515 0)
(51.2824 -0.0127059 0)
(51.5685 -0.0149065 0)
(51.8883 -0.0175346 0)
(52.2466 -0.0206962 0)
(52.6499 -0.024531 0)
(53.1057 -0.0292285 0)
(53.624 -0.0350467 0)
(54.2175 -0.0423494 0)
(54.903 -0.0516585 0)
(55.7033 -0.0637489 0)
(56.6498 -0.0798123 0)
(57.7881 -0.101764 0)
(59.1864 -0.132858 0)
(60.9535 -0.179022 0)
(63.2752 -0.252112 0)
(66.5046 -0.379152 0)
(71.4294 -0.635255 0)
(80.3689 -1.31476 0)
(104.753 -4.79285 0)
(48.9987 2.10554e-07 0)
(48.998 -1.27917e-08 0)
(48.9974 1.38648e-07 0)
(48.9971 -1.06507e-07 0)
(48.9968 1.84046e-07 0)
(48.9966 -1.21458e-07 0)
(48.9964 2.10183e-07 0)
(48.9963 -1.37444e-07 0)
(48.9961 1.93393e-07 0)
(48.996 -1.52628e-07 0)
(48.9959 1.77505e-07 0)
(48.9957 -1.57544e-07 0)
(48.9956 1.58263e-07 0)
(48.9956 -1.58314e-07 0)
(48.9955 1.28783e-07 0)
(48.9954 -1.56123e-07 0)
(48.9954 9.37693e-08 0)
(48.9953 -1.48377e-07 0)
(48.9953 5.98291e-08 0)
(48.9953 -1.36223e-07 0)
(48.9953 2.97821e-08 0)
(48.9953 -1.21062e-07 0)
(48.9954 4.71645e-09 0)
(48.9954 -1.0518e-07 0)
(48.9954 -1.36071e-08 0)
(48.9955 -8.54264e-08 0)
(48.9955 -2.07856e-08 0)
(48.9956 -6.84945e-08 0)
(48.9957 -3.12016e-08 0)
(48.9957 -7.89356e-08 0)
(48.9958 -9.38497e-08 0)
(48.9959 -1.92395e-07 0)
(48.996 -3.18672e-07 0)
(48.9961 -5.71737e-07 0)
(48.9963 -9.50863e-07 0)
(48.9965 -1.57218e-06 0)
(48.9967 -2.50811e-06 0)
(48.9971 -3.93551e-06 0)
(48.9975 -6.03353e-06 0)
(48.9981 -9.09539e-06 0)
(48.999 -1.34664e-05 0)
(49.0002 -1.96384e-05 0)
(49.0019 -2.82156e-05 0)
(49.0042 -3.99971e-05 0)
(49.0072 -5.59677e-05 0)
(49.0112 -7.73797e-05 0)
(49.0166 -0.000105765 0)
(49.0236 -0.000143016 0)
(49.0326 -0.000191435 0)
(49.0442 -0.000253819 0)
(49.0589 -0.000333555 0)
(49.0774 -0.000434742 0)
(49.1005 -0.000562355 0)
(49.1292 -0.000722446 0)
(49.1646 -0.000922443 0)
(49.208 -0.00117156 0)
(49.2609 -0.00148122 0)
(49.3254 -0.00186623 0)
(49.4034 -0.00234497 0)
(49.4979 -0.00294255 0)
(49.6122 -0.00369077 0)
(49.7503 -0.00463471 0)
(49.9177 -0.00583453 0)
(50.0811 -0.00712394 0)
(50.2325 -0.00832405 0)
(50.4007 -0.00972225 0)
(50.5876 -0.0113534 0)
(50.7951 -0.0132637 0)
(51.0257 -0.0155081 0)
(51.2824 -0.0181581 0)
(51.5685 -0.021303 0)
(51.8882 -0.0250587 0)
(52.2465 -0.0295768 0)
(52.6497 -0.0350568 0)
(53.1055 -0.0417696 0)
(53.6238 -0.0500841 0)
(54.2172 -0.0605197 0)
(54.9026 -0.0738222 0)
(55.7027 -0.0910987 0)
(56.649 -0.114051 0)
(57.7869 -0.145416 0)
(59.1847 -0.189839 0)
(60.9507 -0.255782 0)
(63.2703 -0.360162 0)
(66.4948 -0.541501 0)
(71.404 -0.906601 0)
(80.252 -1.86983 0)
(102.795 -6.53276 0)
(48.9987 2.26387e-07 0)
(48.998 -4.11403e-08 0)
(48.9974 1.5031e-07 0)
(48.9971 -1.47233e-07 0)
(48.9968 2.22394e-07 0)
(48.9966 -1.6633e-07 0)
(48.9964 2.58656e-07 0)
(48.9963 -1.90597e-07 0)
(48.9961 2.38147e-07 0)
(48.996 -2.10889e-07 0)
(48.9959 2.19679e-07 0)
(48.9957 -2.16431e-07 0)
(48.9956 1.96695e-07 0)
(48.9956 -2.16523e-07 0)
(48.9955 1.60266e-07 0)
(48.9954 -2.12764e-07 0)
(48.9954 1.1725e-07 0)
(48.9953 -2.00427e-07 0)
(48.9953 7.66613e-08 0)
(48.9953 -1.81605e-07 0)
(48.9953 4.06599e-08 0)
(48.9953 -1.59259e-07 0)
(48.9954 1.09138e-08 0)
(48.9954 -1.35001e-07 0)
(48.9954 -8.88494e-09 0)
(48.9955 -1.05126e-07 0)
(48.9955 -1.39349e-08 0)
(48.9956 -7.83519e-08 0)
(48.9957 -2.41974e-08 0)
(48.9957 -8.9261e-08 0)
(48.9958 -1.06575e-07 0)
(48.9959 -2.41771e-07 0)
(48.996 -4.11285e-07 0)
(48.9961 -7.57059e-07 0)
(48.9963 -1.2723e-06 0)
(48.9965 -2.12036e-06 0)
(48.9967 -3.39565e-06 0)
(48.9971 -5.34307e-06 0)
(48.9975 -8.20292e-06 0)
(48.9981 -1.2378e-05 0)
(48.999 -1.83371e-05 0)
(49.0002 -2.67518e-05 0)
(49.0019 -3.84445e-05 0)
(49.0042 -5.45055e-05 0)
(49.0072 -7.62769e-05 0)
(49.0112 -0.000105467 0)
(49.0166 -0.000144163 0)
(49.0236 -0.000194946 0)
(49.0326 -0.000260953 0)
(49.0442 -0.000346 0)
(49.0589 -0.000454702 0)
(49.0774 -0.000592649 0)
(49.1005 -0.00076662 0)
(49.1292 -0.00098487 0)
(49.1646 -0.00125751 0)
(49.208 -0.00159713 0)
(49.2609 -0.00201924 0)
(49.3253 -0.00254413 0)
(49.4034 -0.00319672 0)
(49.4979 -0.00401139 0)
(49.6121 -0.00503134 0)
(49.7503 -0.00631817 0)
(49.9176 -0.00795376 0)
(50.0811 -0.00971158 0)
(50.2325 -0.0113476 0)
(50.4007 -0.0132537 0)
(50.5875 -0.0154773 0)
(50.795 -0.0180815 0)
(51.0256 -0.0211411 0)
(51.2823 -0.0247536 0)
(51.5684 -0.0290406 0)
(51.8881 -0.0341601 0)
(52.2464 -0.0403189 0)
(52.6495 -0.0477889 0)
(53.1053 -0.0569392 0)
(53.6234 -0.0682725 0)
(54.2167 -0.0824968 0)
(54.902 -0.100628 0)
(55.7018 -0.124175 0)
(56.6477 -0.155456 0)
(57.7851 -0.198197 0)
(59.1819 -0.258724 0)
(60.9461 -0.348552 0)
(63.2621 -0.49068 0)
(66.4782 -0.737397 0)
(71.3616 -1.23308 0)
(80.0665 -2.52947 0)
(100.562 -8.41504 0)
(48.9987 2.45817e-07 0)
(48.998 -7.55215e-08 0)
(48.9974 1.64722e-07 0)
(48.9971 -1.96334e-07 0)
(48.9968 2.68683e-07 0)
(48.9966 -2.20428e-07 0)
(48.9964 3.1745e-07 0)
(48.9963 -2.54675e-07 0)
(48.9961 2.92609e-07 0)
(48.996 -2.81313e-07 0)
(48.9959 2.70488e-07 0)
(48.9957 -2.87728e-07 0)
(48.9956 2.42684e-07 0)
(48.9956 -2.87173e-07 0)
(48.9955 1.98482e-07 0)
(48.9954 -2.81207e-07 0)
(48.9954 1.45903e-07 0)
(48.9953 -2.6336e-07 0)
(48.9953 9.70064e-08 0)
(48.9953 -2.36693e-07 0)
(48.9953 5.38532e-08 0)
(48.9953 -2.0553e-07 0)
(48.9954 1.83762e-08 0)
(48.9954 -1.7085e-07 0)
(48.9954 -3.11465e-09 0)
(48.9955 -1.28834e-07 0)
(48.9955 -5.66014e-09 0)
(48.9956 -8.99075e-08 0)
(48.9957 -1.56585e-08 0)
(48.9957 -1.01948e-07 0)
(48.9958 -1.21987e-07 0)
(48.9959 -3.018e-07 0)
(48.996 -5.23556e-07 0)
(48.9961 -9.81331e-07 0)
(48.9963 -1.6611e-06 0)
(48.9965 -2.78351e-06 0)
(48.9967 -4.46945e-06 0)
(48.9971 -7.04578e-06 0)
(48.9975 -1.08275e-05 0)
(48.9981 -1.63492e-05 0)
(48.999 -2.42293e-05 0)
(49.0002 -3.53571e-05 0)
(49.0019 -5.08185e-05 0)
(49.0042 -7.20564e-05 0)
(49.0072 -0.000100845 0)
(49.0112 -0.000139443 0)
(49.0166 -0.000190612 0)
(49.0236 -0.000257765 0)
(49.0326 -0.00034505 0)
(49.0442 -0.000457512 0)
(49.0589 -0.000601255 0)
(49.0774 -0.00078367 0)
(49.1005 -0.00101372 0)
(49.1292 -0.00130233 0)
(49.1646 -0.00166284 0)
(49.2079 -0.00211194 0)
(49.2609 -0.00267009 0)
(49.3253 -0.00336418 0)
(49.4034 -0.00422707 0)
(49.4979 -0.00530435 0)
(49.6121 -0.00665301 0)
(49.7503 -0.00835462 0)
(49.9176 -0.0105174 0)
(50.0811 -0.0128418 0)
(50.2325 -0.015005 0)
(50.4006 -0.0175255 0)
(50.5874 -0.0204658 0)
(50.7949 -0.0239092 0)
(51.0255 -0.0279549 0)
(51.2822 -0.0327315 0)
(51.5682 -0.0383999 0)
(51.8879 -0.045169 0)
(52.2461 -0.0533121 0)
(52.6492 -0.0631886 0)
(53.1048 -0.0752866 0)
(53.6228 -0.0902702 0)
(54.216 -0.109075 0)
(54.9009 -0.133044 0)
(55.7004 -0.16417 0)
(56.6457 -0.205515 0)
(57.782 -0.261997 0)
(59.1772 -0.341965 0)
(60.9385 -0.460601 0)
(63.2487 -0.648187 0)
(66.4514 -0.973386 0)
(71.2937 -1.62458 0)
(79.7862 -3.30606 0)
(98.0442 -10.4016 0)
(48.9987 2.69046e-07 0)
(48.998 -1.17052e-07 0)
(48.9974 1.82125e-07 0)
(48.9971 -2.56062e-07 0)
(48.9968 3.24469e-07 0)
(48.9966 -2.86089e-07 0)
(48.9964 3.88641e-07 0)
(48.9963 -3.3234e-07 0)
(48.9961 3.58551e-07 0)
(48.996 -3.66339e-07 0)
(48.9959 3.31992e-07 0)
(48.9957 -3.74138e-07 0)
(48.9956 2.98619e-07 0)
(48.9956 -3.72775e-07 0)
(48.9955 2.44762e-07 0)
(48.9954 -3.64007e-07 0)
(48.9954 1.80509e-07 0)
(48.9953 -3.39589e-07 0)
(48.9953 1.21297e-07 0)
(48.9953 -3.03419e-07 0)
(48.9953 6.97881e-08 0)
(48.9953 -2.61195e-07 0)
(48.9954 2.75643e-08 0)
(48.9954 -2.14318e-07 0)
(48.9954 3.74197e-09 0)
(48.9955 -1.57491e-07 0)
(48.9955 4.51303e-09 0)
(48.9956 -1.0361e-07 0)
(48.9957 -5.27194e-09 0)
(48.9957 -1.17468e-07 0)
(48.9958 -1.4085e-07 0)
(48.9959 -3.74417e-07 0)
(48.996 -6.59546e-07 0)
(48.9961 -1.25268e-06 0)
(48.9963 -2.13154e-06 0)
(48.9965 -3.58581e-06 0)
(48.9967 -5.76849e-06 0)
(48.9971 -9.10557e-06 0)
(48.9975 -1.40025e-05 0)
(48.9981 -2.11533e-05 0)
(48.999 -3.13571e-05 0)
(49.0002 -4.57669e-05 0)
(49.0019 -6.57875e-05 0)
(49.0042 -9.32876e-05 0)
(49.0072 -0.000130565 0)
(49.0112 -0.000180545 0)
(49.0166 -0.000246803 0)
(49.0236 -0.000333758 0)
(49.0326 -0.000446781 0)
(49.0442 -0.000592407 0)
(49.0589 -0.000778539 0)
(49.0774 -0.00101475 0)
(49.1005 -0.00131264 0)
(49.1292 -0.00168635 0)
(49.1645 -0.00215316 0)
(49.2079 -0.0027347 0)
(49.2609 -0.00345741 0)
(49.3253 -0.00435619 0)
(49.4034 -0.00547347 0)
(49.4979 -0.00686842 0)
(49.6121 -0.0086147 0)
(49.7502 -0.010818 0)
(49.9176 -0.0136184 0)
(50.081 -0.0166282 0)
(50.2324 -0.0194292 0)
(50.4006 -0.0226928 0)
(50.5873 -0.0264999 0)
(50.7948 -0.0309585 0)
(51.0254 -0.0361968 0)
(51.2819 -0.0423812 0)
(51.568 -0.0497202 0)
(51.8875 -0.0584841 0)
(52.2457 -0.0690268 0)
(52.6486 -0.0818131 0)
(53.1041 -0.0974747 0)
(53.6219 -0.116871 0)
(54.2147 -0.141213 0)
(54.8993 -0.172236 0)
(55.6981 -0.212517 0)
(56.6424 -0.266014 0)
(57.7772 -0.33908 0)
(59.1698 -0.442489 0)
(60.9266 -0.59581 0)
(63.2277 -0.837991 0)
(66.4093 -1.25697 0)
(71.1882 -2.09169 0)
(79.3794 -4.20866 0)
(95.243 -12.4348 0)
(48.9987 2.975e-07 0)
(48.998 -1.67128e-07 0)
(48.9974 2.03173e-07 0)
(48.9971 -3.2843e-07 0)
(48.9968 3.92082e-07 0)
(48.9966 -3.65789e-07 0)
(48.9964 4.74791e-07 0)
(48.9963 -4.26065e-07 0)
(48.9961 4.38006e-07 0)
(48.996 -4.69463e-07 0)
(48.9959 4.06405e-07 0)
(48.9957 -4.78696e-07 0)
(48.9956 3.6654e-07 0)
(48.9956 -4.76306e-07 0)
(48.9955 3.00695e-07 0)
(48.9954 -4.64096e-07 0)
(48.9954 2.22312e-07 0)
(48.9953 -4.31847e-07 0)
(48.9953 1.50764e-07 0)
(48.9953 -3.84036e-07 0)
(48.9953 8.90073e-08 0)
(48.9953 -3.2826e-07 0)
(48.9954 3.87579e-08 0)
(48.9954 -2.66666e-07 0)
(48.9954 1.2031e-08 0)
(48.9955 -1.92057e-07 0)
(48.9955 1.67668e-08 0)
(48.9956 -1.20411e-07 0)
(48.9957 7.16655e-09 0)
(48.9957 -1.36154e-07 0)
(48.9958 -1.63606e-07 0)
(48.9959 -4.62142e-07 0)
(48.996 -8.24067e-07 0)
(48.9961 -1.5809e-06 0)
(48.9963 -2.70067e-06 0)
(48.9965 -4.55645e-06 0)
(48.9967 -7.34e-06 0)
(48.9971 -1.15973e-05 0)
(48.9975 -1.78433e-05 0)
(48.9981 -2.69648e-05 0)
(48.999 -3.99798e-05 0)
(49.0002 -5.83596e-05 0)
(49.0019 -8.38952e-05 0)
(49.0042 -0.000118971 0)
(49.0072 -0.000166518 0)
(49.0112 -0.000230265 0)
(49.0166 -0.000314775 0)
(49.0236 -0.000425685 0)
(49.0326 -0.000569844 0)
(49.0442 -0.000755587 0)
(49.0589 -0.000992996 0)
(49.0773 -0.00129428 0)
(49.1005 -0.00167423 0)
(49.1292 -0.00215089 0)
(49.1645 -0.00274629 0)
(49.2079 -0.00348804 0)
(49.2609 -0.00440979 0)
(49.3253 -0.00555617 0)
(49.4034 -0.00698118 0)
(49.4979 -0.00876039 0)
(49.6121 -0.0109876 0)
(49.7502 -0.0137979 0)
(49.9175 -0.0173695 0)
(50.0809 -0.0212082 0)
(50.2323 -0.0247806 0)
(50.4004 -0.028943 0)
(50.5872 -0.0337984 0)
(50.7946 -0.0394846 0)
(51.0251 -0.0461651 0)
(51.2816 -0.054052 0)
(51.5675 -0.0634111 0)
(51.887 -0.0745868 0)
(52.245 -0.0880304 0)
(52.6478 -0.104334 0)
(53.103 -0.124303 0)
(53.6205 -0.149032 0)
(54.2128 -0.180062 0)
(54.8967 -0.219604 0)
(55.6945 -0.270936 0)
(56.6373 -0.339092 0)
(57.7698 -0.432145 0)
(59.1584 -0.563765 0)
(60.9081 -0.758737 0)
(63.1952 -1.06622 0)
(66.3445 -1.5965 0)
(71.0285 -2.64495 0)
(78.809 -5.23985 0)
(92.173 -14.4362 0)
(48.9987 3.31847e-07 0)
(48.998 -2.27738e-07 0)
(48.9974 2.2862e-07 0)
(48.9971 -4.15999e-07 0)
(48.9968 4.74015e-07 0)
(48.9966 -4.62087e-07 0)
(48.9964 5.79196e-07 0)
(48.9963 -5.39568e-07 0)
(48.9961 5.34163e-07 0)
(48.996 -5.94126e-07 0)
(48.9959 4.96376e-07 0)
(48.9957 -6.04901e-07 0)
(48.9956 4.4837e-07 0)
(48.9956 -6.01488e-07 0)
(48.9955 3.6821e-07 0)
(48.9954 -5.85081e-07 0)
(48.9954 2.73118e-07 0)
(48.9953 -5.43412e-07 0)
(48.9953 1.86528e-07 0)
(48.9953 -4.81462e-07 0)
(48.9953 1.1232e-07 0)
(48.9953 -4.09496e-07 0)
(48.9954 5.23535e-08 0)
(48.9954 -3.30045e-07 0)
(48.9954 2.20621e-08 0)
(48.9955 -2.33853e-07 0)
(48.9955 3.13313e-08 0)
(48.9956 -1.40832e-07 0)
(48.9957 2.20614e-08 0)
(48.9957 -1.58811e-07 0)
(48.9958 -1.91238e-07 0)
(48.9959 -5.68323e-07 0)
(48.996 -1.02329e-06 0)
(48.9961 -1.97809e-06 0)
(48.9963 -3.3892e-06 0)
(48.9965 -5.73077e-06 0)
(48.9967 -9.24134e-06 0)
(48.9971 -1.46118e-05 0)
(48.9975 -2.24896e-05 0)
(48.9981 -3.39949e-05 0)
(48.999 -5.04104e-05 0)
(49.0002 -7.35927e-05 0)
(49.0019 -0.0001058 0)
(49.0042 -0.000150039 0)
(49.0072 -0.000210008 0)
(49.0112 -0.00029041 0)
(49.0166 -0.000396998 0)
(49.0236 -0.000536884 0)
(49.0326 -0.000718706 0)
(49.0442 -0.000952978 0)
(49.0588 -0.00125241 0)
(49.0773 -0.0016324 0)
(49.1005 -0.00211162 0)
(49.1291 -0.00271282 0)
(49.1645 -0.00346375 0)
(49.2079 -0.00439929 0)
(49.2609 -0.00556183 0)
(49.3253 -0.00700769 0)
(49.4034 -0.00880492 0)
(49.4978 -0.0110489 0)
(49.612 -0.0138579 0)
(49.7501 -0.0174022 0)
(49.9174 -0.0219066 0)
(50.0808 -0.0267479 0)
(50.2321 -0.0312531 0)
(50.4002 -0.0365023 0)
(50.5869 -0.0426254 0)
(50.7943 -0.0497962 0)
(51.0247 -0.0582204 0)
(51.2811 -0.0681655 0)
(51.5669 -0.0799667 0)
(51.8862 -0.0940576 0)
(52.244 -0.111007 0)
(52.6465 -0.131561 0)
(53.1013 -0.156733 0)
(53.6183 -0.187901 0)
(54.2099 -0.227005 0)
(54.8927 -0.276825 0)
(55.689 -0.341481 0)
(56.6295 -0.427293 0)
(57.7583 -0.544385 0)
(59.141 -0.709863 0)
(60.8798 -0.95465 0)
(63.1457 -1.33976 0)
(66.2466 -2.00081 0)
(70.7928 -3.29344 0)
(78.0349 -6.39146 0)
(88.8652 -16.3096 0)
(48.9987 3.73273e-07 0)
(48.998 -3.00977e-07 0)
(48.9974 2.59347e-07 0)
(48.9971 -5.21907e-07 0)
(48.9968 5.73156e-07 0)
(48.9966 -5.78386e-07 0)
(48.9964 7.05396e-07 0)
(48.9963 -6.76825e-07 0)
(48.9961 6.50595e-07 0)
(48.996 -7.44848e-07 0)
(48.9959 6.05401e-07 0)
(48.9957 -7.57796e-07 0)
(48.9956 5.47482e-07 0)
(48.9956 -7.52988e-07 0)
(48.9955 4.49961e-07 0)
(48.9954 -7.31543e-07 0)
(48.9954 3.34521e-07 0)
(48.9953 -6.78435e-07 0)
(48.9953 2.29778e-07 0)
(48.9953 -5.99274e-07 0)
(48.9953 1.4053e-07 0)
(48.9953 -5.07785e-07 0)
(48.9954 6.8808e-08 0)
(48.9954 -4.06907e-07 0)
(48.9954 3.40824e-08 0)
(48.9955 -2.84532e-07 0)
(48.9955 4.88999e-08 0)
(48.9956 -1.65588e-07 0)
(48.9957 4.00091e-08 0)
(48.9957 -1.86435e-07 0)
(48.9958 -2.25011e-07 0)
(48.9959 -6.96921e-07 0)
(48.996 -1.26448e-06 0)
(48.9961 -2.45897e-06 0)
(48.9963 -4.2224e-06 0)
(48.9965 -7.15154e-06 0)
(48.9967 -1.15416e-05 0)
(48.9971 -1.82586e-05 0)
(48.9975 -2.81103e-05 0)
(48.9981 -4.2499e-05 0)
(48.999 -6.30279e-05 0)
(49.0002 -9.20192e-05 0)
(49.0019 -0.000132296 0)
(49.0042 -0.00018762 0)
(49.0072 -0.000262614 0)
(49.0112 -0.000363162 0)
(49.0166 -0.000496457 0)
(49.0236 -0.000671393 0)
(49.0326 -0.000898773 0)
(49.0442 -0.00119174 0)
(49.0588 -0.0015662 0)
(49.0773 -0.00204141 0)
(49.1004 -0.0026407 0)
(49.1291 -0.00339252 0)
(49.1645 -0.00433159 0)
(49.2079 -0.00550153 0)
(49.2608 -0.00695529 0)
(49.3252 -0.00876339 0)
(49.4033 -0.0110108 0)
(49.4977 -0.0138169 0)
(49.6119 -0.0173295 0)
(49.7499 -0.0217615 0)
(49.9172 -0.027394 0)
(50.0805 -0.0334476 0)
(50.2318 -0.0390808 0)
(50.3999 -0.0456441 0)
(50.5865 -0.0532999 0)
(50.7938 -0.0622652 0)
(51.0241 -0.0727971 0)
(51.2803 -0.0852298 0)
(51.566 -0.0999819 0)
(51.885 -0.117595 0)
(52.2425 -0.138779 0)
(52.6445 -0.164465 0)
(53.0988 -0.195918 0)
(53.6149 -0.234855 0)
(54.2054 -0.283695 0)
(54.8867 -0.345899 0)
(55.6806 -0.42659 0)
(56.6177 -0.53362 0)
(57.741 -0.679536 0)
(59.1146 -0.88548 0)
(60.8372 -1.18949 0)
(63.0714 -1.66607 0)
(66.1011 -2.47845 0)
(70.453 -4.04242 0)
(77.0179 -7.63989 0)
(85.3689 -17.9481 0)
(48.9987 4.23666e-07 0)
(48.998 -3.89543e-07 0)
(48.9974 2.96615e-07 0)
(48.9971 -6.49854e-07 0)
(48.9968 6.93102e-07 0)
(48.9966 -7.19041e-07 0)
(48.9964 8.58031e-07 0)
(48.9963 -8.42938e-07 0)
(48.9961 7.91408e-07 0)
(48.996 -9.27228e-07 0)
(48.9959 7.37376e-07 0)
(48.9957 -9.42732e-07 0)
(48.9956 6.67367e-07 0)
(48.9956 -9.36168e-07 0)
(48.9955 5.48968e-07 0)
(48.9954 -9.08743e-07 0)
(48.9954 4.08819e-07 0)
(48.9953 -8.41818e-07 0)
(48.9953 2.82119e-07 0)
(48.9953 -7.41941e-07 0)
(48.9953 1.74721e-07 0)
(48.9953 -6.26656e-07 0)
(48.9954 8.88051e-08 0)
(48.9954 -4.99997e-07 0)
(48.9954 4.85923e-08 0)
(48.9955 -3.46052e-07 0)
(48.9955 7.00709e-08 0)
(48.9956 -1.95778e-07 0)
(48.9957 6.14886e-08 0)
(48.9957 -2.20068e-07 0)
(48.9958 -2.66222e-07 0)
(48.9959 -8.52906e-07 0)
(48.996 -1.55665e-06 0)
(48.9961 -3.04112e-06 0)
(48.9963 -5.23076e-06 0)
(48.9965 -8.87064e-06 0)
(48.9967 -1.43245e-05 0)
(48.9971 -2.26702e-05 0)
(48.9975 -3.49096e-05 0)
(48.9981 -5.2786e-05 0)
(48.999 -7.82903e-05 0)
(49.0002 -0.000114308 0)
(49.0019 -0.000164346 0)
(49.0041 -0.000233077 0)
(49.0072 -0.000326246 0)
(49.0112 -0.000451161 0)
(49.0166 -0.000616758 0)
(49.0236 -0.000834089 0)
(49.0326 -0.00111657 0)
(49.0441 -0.00148054 0)
(49.0588 -0.00194575 0)
(49.0773 -0.00253611 0)
(49.1004 -0.00328063 0)
(49.1291 -0.00421464 0)
(49.1645 -0.00538126 0)
(49.2078 -0.00683469 0)
(49.2608 -0.00864068 0)
(49.3252 -0.0108869 0)
(49.4032 -0.0136788 0)
(49.4976 -0.0171647 0)
(49.6117 -0.0215281 0)
(49.7498 -0.0270335 0)
(49.9169 -0.03403 0)
(50.0802 -0.0415492 0)
(50.2314 -0.0485461 0)
(50.3994 -0.0566978 0)
(50.5859 -0.066206 0)
(50.793 -0.0773398 0)
(51.0232 -0.0904185 0)
(51.2792 -0.105856 0)
(51.5645 -0.124172 0)
(51.8832 -0.146038 0)
(52.2402 -0.172333 0)
(52.6416 -0.204211 0)
(53.0949 -0.243236 0)
(53.6099 -0.291536 0)
(54.1987 -0.352095 0)
(54.8776 -0.429188 0)
(55.6681 -0.529127 0)
(56.6 -0.661568 0)
(57.7151 -0.84189 0)
(59.075 -1.0959 0)
(60.7737 -1.46971 0)
(62.9612 -2.05259 0)
(65.8888 -3.03631 0)
(69.9757 -4.89002 0)
(75.726 -8.94195 0)
(81.7509 -19.2464 0)
(48.9987 4.84905e-07 0)
(48.998 -4.9649e-07 0)
(48.9974 3.41871e-07 0)
(48.9971 -8.04575e-07 0)
(48.9968 8.38258e-07 0)
(48.9966 -8.89254e-07 0)
(48.9964 1.04284e-06 0)
(48.9963 -1.04389e-06 0)
(48.9961 9.61829e-07 0)
(48.996 -1.14779e-06 0)
(48.9959 8.97239e-07 0)
(48.9957 -1.16643e-06 0)
(48.9956 8.12602e-07 0)
(48.9956 -1.15765e-06 0)
(48.9955 6.6889e-07 0)
(48.9954 -1.123e-06 0)
(48.9954 4.9883e-07 0)
(48.9953 -1.03946e-06 0)
(48.9953 3.45604e-07 0)
(48.9953 -9.14518e-07 0)
(48.9953 2.16151e-07 0)
(48.9953 -7.70549e-07 0)
(48.9954 1.12801e-07 0)
(48.9954 -6.12771e-07 0)
(48.9954 6.60984e-08 0)
(48.9955 -4.20794e-07 0)
(48.9955 9.53647e-08 0)
(48.9956 -2.32734e-07 0)
(48.9957 8.69363e-08 0)
(48.9957 -2.61288e-07 0)
(48.9958 -3.16626e-07 0)
(48.9959 -1.04224e-06 0)
(48.996 -1.91087e-06 0)
(48.9961 -3.74604e-06 0)
(48.9963 -6.4513e-06 0)