/*--------------------------------*- C++ -*----------------------------------*\
| =========                 |                                                 |
| \\      /  F ield         | OpenFOAM: The Open Source CFD Toolbox           |
|  \\    /   O peration     | Version:  5.x                                   |
|   \\  /    A nd           | Web:      www.OpenFOAM.org                      |
|    \\/     M anipulation  |                                                 |
\*---------------------------------------------------------------------------*/
FoamFile
{
    version     2.0;
    format      ascii;
    class       volScalarField;
    location    "50";
    object      nuTilda;
}
// * * * * * * * * * * * * * * * * * * * * * * * * * * * * * * * * * * * * * //

dimensions      [0 2 -1 0 0 0 0];

internalField   nonuniform List<scalar> 
20540
(
5.00992e-05
5.71925e-05
5.04163e-05
5.74235e-05
5.13096e-05
5.79497e-05
5.25854e-05
5.85911e-05
5.39569e-05
5.95995e-05
5.50523e-05
6.23326e-05
5.5566e-05
6.95801e-05
5.57223e-05
8.05327e-05
5.72121e-05
9.31764e-05
6.22818e-05
0.000105198
6.84396e-05
0.00011417
7.28314e-05
0.000117473
7.31736e-05
0.000112405
6.83194e-05
9.72924e-05
5.95438e-05
7.64502e-05
5.13656e-05
6.13008e-05
4.79434e-05
5.2348e-05
4.681e-05
4.8182e-05
4.64967e-05
4.69119e-05
4.6469e-05
4.66353e-05
4.64774e-05
4.65729e-05
4.64857e-05
4.65475e-05
4.64913e-05
4.65311e-05
4.6495e-05
4.65201e-05
4.64973e-05
4.65128e-05
4.64988e-05
4.65077e-05
4.64998e-05
4.65044e-05
4.65003e-05
4.65021e-05
4.65006e-05
4.65005e-05
4.65006e-05
4.64994e-05
4.65004e-05
4.64985e-05
4.64996e-05
4.64972e-05
4.64996e-05
4.64972e-05
4.65002e-05
4.64981e-05
4.65006e-05
4.64993e-05
4.65006e-05
4.65004e-05
4.65003e-05
4.65018e-05
4.64998e-05
4.6504e-05
4.6499e-05
4.65071e-05
4.64976e-05
4.65116e-05
4.64955e-05
4.65182e-05
4.64923e-05
4.65278e-05
4.64874e-05
4.6542e-05
4.64802e-05
4.6563e-05
4.64699e-05
4.66007e-05
4.64728e-05
4.67308e-05
4.65724e-05
4.7278e-05
4.71002e-05
4.93655e-05
4.86416e-05
5.46834e-05
5.34142e-05
6.45106e-05
6.12428e-05
8.02878e-05
6.796e-05
9.79215e-05
7.05591e-05
0.000108857
6.87763e-05
0.000110989
6.4029e-05
0.000106209
5.85654e-05
9.69541e-05
5.48542e-05
8.55536e-05
5.43935e-05
7.42485e-05
5.4363e-05
6.5173e-05
5.38248e-05
5.99294e-05
5.27942e-05
5.81736e-05
5.15788e-05
5.74518e-05
5.04832e-05
5.68999e-05
4.9728e-05
5.64144e-05
4.94611e-05
5.61987e-05
1.26009e-05
1.10599e-05
1.07385e-05
1.06257e-05
1.05831e-05
1.05661e-05
1.05607e-05
1.05622e-05
1.05677e-05
1.05754e-05
1.05845e-05
1.05944e-05
1.06049e-05
1.06157e-05
1.06267e-05
1.06379e-05
1.06492e-05
1.06606e-05
1.06723e-05
1.06843e-05
1.06967e-05
1.07092e-05
1.07219e-05
1.07347e-05
1.07476e-05
1.07607e-05
1.07737e-05
1.07867e-05
1.07999e-05
1.08132e-05
1.08267e-05
1.08404e-05
1.08545e-05
1.08689e-05
1.08835e-05
1.08984e-05
1.09134e-05
1.09286e-05
1.09438e-05
1.09591e-05
1.09744e-05
1.09899e-05
1.10057e-05
1.10218e-05
1.10382e-05
1.10553e-05
1.1073e-05
1.10914e-05
1.11105e-05
1.11306e-05
1.11516e-05
1.11735e-05
1.11967e-05
1.12215e-05
1.12482e-05
1.12772e-05
1.1309e-05
1.13441e-05
1.13833e-05
1.14282e-05
1.14773e-05
1.1537e-05
1.16082e-05
1.16563e-05
1.16911e-05
1.17368e-05
1.17976e-05
1.18792e-05
1.19746e-05
1.20886e-05
1.2204e-05
1.23366e-05
1.24585e-05
1.26066e-05
1.27325e-05
1.29018e-05
1.30382e-05
1.32322e-05
1.3401e-05
1.35999e-05
1.38703e-05
1.39915e-05
1.44944e-05
1.44838e-05
1.49826e-05
1.57164e-05
1.3702e-05
1.16664e-05
3.79326e-05
3.41606e-05
3.30657e-05
3.267e-05
3.25131e-05
3.24466e-05
3.24218e-05
3.24212e-05
3.24351e-05
3.24571e-05
3.24839e-05
3.25138e-05
3.25458e-05
3.2579e-05
3.26129e-05
3.26472e-05
3.2682e-05
3.27173e-05
3.27534e-05
3.27905e-05
3.28285e-05
3.2867e-05
3.2906e-05
3.29454e-05
3.29852e-05
3.30251e-05
3.3065e-05
3.31049e-05
3.31451e-05
3.31857e-05
3.32269e-05
3.32688e-05
3.33116e-05
3.33552e-05
3.33995e-05
3.34444e-05
3.34899e-05
3.35357e-05
3.35816e-05
3.36275e-05
3.36736e-05
3.37203e-05
3.37676e-05
3.38156e-05
3.38647e-05
3.39153e-05
3.39677e-05
3.40221e-05
3.40787e-05
3.41376e-05
3.41991e-05
3.42633e-05
3.43308e-05
3.44023e-05
3.44793e-05
3.45625e-05
3.46533e-05
3.47529e-05
3.48631e-05
3.49892e-05
3.51253e-05
3.52896e-05
3.54933e-05
3.56232e-05
3.57069e-05
3.58098e-05
3.59525e-05
3.61585e-05
3.64072e-05
3.67143e-05
3.70264e-05
3.73896e-05
3.77185e-05
3.81193e-05
3.8452e-05
3.8899e-05
3.92503e-05
3.97446e-05
4.01737e-05
4.06523e-05
4.13374e-05
4.15831e-05
4.28419e-05
4.27046e-05
4.42331e-05
4.47584e-05
4.45733e-05
5.04278e-05
6.64766e-05
6.25757e-05
6.02086e-05
5.92978e-05
5.89193e-05
5.87493e-05
5.86754e-05
5.86564e-05
5.86704e-05
5.87031e-05
5.8747e-05
5.87982e-05
5.88541e-05
5.89126e-05
5.89724e-05
5.90332e-05
5.90947e-05
5.9157e-05
5.92206e-05
5.92859e-05
5.93528e-05
5.94203e-05
5.94882e-05
5.95569e-05
5.96259e-05
5.96949e-05
5.97634e-05
5.98315e-05
5.98997e-05
5.99684e-05
6.00375e-05
6.01077e-05
6.0179e-05
6.02513e-05
6.03244e-05
6.03983e-05
6.04726e-05
6.05471e-05
6.06211e-05
6.06945e-05
6.07675e-05
6.08408e-05
6.09147e-05
6.09891e-05
6.10646e-05
6.11418e-05
6.12213e-05
6.13033e-05
6.13881e-05
6.14758e-05
6.15666e-05
6.16606e-05
6.17584e-05
6.18612e-05
6.19714e-05
6.20897e-05
6.22182e-05
6.23584e-05
6.25121e-05
6.2689e-05
6.28737e-05
6.30977e-05
6.3409e-05
6.34885e-05
6.34679e-05
6.34476e-05
6.34865e-05
6.36444e-05
6.38846e-05
6.42319e-05
6.4585e-05
6.50168e-05
6.53773e-05
6.58328e-05
6.61598e-05
6.66252e-05
6.69258e-05
6.73782e-05
6.77065e-05
6.80573e-05
6.85421e-05
6.86186e-05
6.93428e-05
6.91668e-05
6.97703e-05
6.9062e-05
6.98798e-05
8.19441e-05
9.15809e-05
9.11536e-05
8.79706e-05
8.65253e-05
8.58922e-05
8.55898e-05
8.54403e-05
8.53767e-05
8.53647e-05
8.53826e-05
8.54181e-05
8.54647e-05
8.55183e-05
8.55755e-05
8.56342e-05
8.56935e-05
8.57533e-05
8.58135e-05
8.58747e-05
8.59374e-05
8.60012e-05
8.60649e-05
8.61282e-05
8.61915e-05
8.62543e-05
8.63159e-05
8.63758e-05
8.6434e-05
8.64911e-05
8.65476e-05
8.66036e-05
8.66597e-05
8.6716e-05
8.67721e-05
8.68279e-05
8.68835e-05
8.69383e-05
8.69919e-05
8.70433e-05
8.70923e-05
8.71393e-05
8.7185e-05
8.72298e-05
8.72737e-05
8.7317e-05
8.73602e-05
8.74041e-05
8.74489e-05
8.74948e-05
8.75415e-05
8.75892e-05
8.76374e-05
8.76864e-05
8.77377e-05
8.77936e-05
8.78546e-05
8.7922e-05
8.79976e-05
8.8081e-05
8.81846e-05
8.82855e-05
8.84142e-05
8.86815e-05
8.84633e-05
8.81052e-05
8.77091e-05
8.73715e-05
8.71868e-05
8.71191e-05
8.71944e-05
8.72893e-05
8.7473e-05
8.75765e-05
8.77585e-05
8.77983e-05
8.79277e-05
8.78926e-05
8.79147e-05
8.78258e-05
8.76503e-05
8.75104e-05
8.70907e-05
8.66248e-05
8.62203e-05
8.49182e-05
8.32361e-05
8.39538e-05
8.35658e-05
0.000112031
0.000116035
0.000112296
0.000110285
0.000109357
0.00010889
0.000108638
0.000108507
0.000108449
0.000108433
0.000108442
0.000108468
0.000108503
0.000108543
0.000108585
0.000108627
0.000108669
0.000108711
0.000108753
0.000108796
0.00010884
0.000108882
0.000108922
0.000108962
0.000108999
0.000109034
0.000109066
0.000109094
0.000109119
0.000109142
0.000109163
0.000109183
0.000109201
0.000109218
0.000109232
0.000109245
0.000109255
0.000109262
0.000109264
0.000109262
0.000109256
0.000109246
0.000109233
0.000109216
0.000109197
0.000109175
0.000109151
0.000109125
0.000109098
0.000109068
0.000109036
0.000109001
0.000108962
0.000108921
0.000108881
0.00010884
0.0001088
0.000108762
0.000108724
0.000108699
0.00010866
0.000108625
0.000108794
0.000108171
0.000107362
0.000106454
0.00010558
0.000104872
0.000104309
0.000103923
0.000103582
0.000103337
0.000103018
0.000102746
0.000102336
0.00010194
0.000101397
0.000100789
0.000100091
9.91701e-05
9.82084e-05
9.69831e-05
9.52934e-05
9.39669e-05
9.12119e-05
8.75915e-05
8.88823e-05
7.49943e-05
0.00012848
0.000138099
0.000134098
0.000131428
0.000130116
0.000129424
0.000129026
0.000128791
0.000128657
0.000128583
0.000128545
0.00012853
0.000128528
0.000128533
0.000128541
0.000128548
0.000128555
0.000128561
0.000128567
0.000128572
0.000128575
0.000128576
0.000128574
0.000128568
0.000128559
0.000128546
0.000128526
0.000128501
0.000128471
0.000128436
0.000128396
0.000128354
0.000128307
0.000128255
0.0001282
0.00012814
0.000128075
0.000128004
0.000127925
0.000127839
0.000127745
0.000127645
0.000127538
0.000127425
0.000127305
0.000127178
0.000127046
0.000126908
0.000126765
0.000126615
0.000126458
0.000126292
0.000126117
0.000125934
0.000125744
0.000125547
0.000125343
0.000125132
0.000124908
0.000124688
0.000124442
0.000124163
0.000124171
0.000123018
0.000121622
0.000120041
0.000118439
0.000116988
0.000115701
0.000114621
0.000113622
0.000112727
0.000111778
0.000110842
0.000109775
0.000108645
0.000107376
0.000105926
0.000104387
0.000102487
0.000100527
9.80963e-05
9.53302e-05
9.22599e-05
8.87108e-05
8.24249e-05
8.46176e-05
6.37664e-05
0.00014083
0.00015734
0.000153675
0.00015031
0.000148517
0.000147527
0.000146926
0.000146541
0.000146292
0.000146126
0.00014601
0.000145925
0.000145861
0.000145806
0.000145754
0.000145703
0.000145651
0.000145596
0.000145539
0.00014548
0.000145417
0.00014535
0.000145276
0.000145198
0.000145113
0.00014502
0.000144919
0.000144809
0.00014469
0.000144563
0.000144429
0.000144287
0.000144139
0.000143982
0.000143818
0.000143645
0.000143464
0.000143273
0.000143072
0.000142857
0.000142631
0.000142394
0.000142146
0.000141887
0.000141616
0.000141333
0.000141039
0.000140734
0.000140418
0.000140089
0.000139747
0.00013939
0.000139015
0.000138623
0.000138215
0.000137791
0.000137348
0.000136886
0.000136398
0.000135897
0.000135356
0.000134731
0.000134496
0.000132665
0.000130541
0.000128118
0.000125585
0.000123145
0.00012086
0.000118796
0.00011685
0.000115024
0.00011317
0.000111304
0.000109311
0.000107197
0.000104928
0.000102405
9.97671e-05
9.66469e-05
9.35524e-05
8.96198e-05
8.59021e-05
8.09823e-05
7.6796e-05
6.90757e-05
7.08635e-05
5.22933e-05
0.000148576
0.000173134
0.000170834
0.000166881
0.000164535
0.000163173
0.000162306
0.000161716
0.000161301
0.000160997
0.000160762
0.000160571
0.000160406
0.000160257
0.000160112
0.000159968
0.000159822
0.000159673
0.000159519
0.00015936
0.000159195
0.000159023
0.00015884
0.000158649
0.000158449
0.000158237
0.000158012
0.000157774
0.000157523
0.000157259
0.000156984
0.000156696
0.000156397
0.000156085
0.00015576
0.000155423
0.000155072
0.000154706
0.000154324
0.000153924
0.000153506
0.000153071
0.000152619
0.00015215
0.000151662
0.000151155
0.00015063
0.000150086
0.000149524
0.000148941
0.000148335
0.000147706
0.000147049
0.000146363
0.000145649
0.000144906
0.000144129
0.000143318
0.000142462
0.000141571
0.000140628
0.000139532
0.000138937
0.000136255
0.000133248
0.000129816
0.00012615
0.000122466
0.000118877
0.000115486
0.000112239
0.000109131
0.000106034
0.000102934
9.97182e-05
9.63849e-05
9.28938e-05
8.91714e-05
8.53705e-05
8.11116e-05
7.70802e-05
7.21938e-05
6.79961e-05
6.26994e-05
5.85739e-05
5.22753e-05
5.27371e-05
4.30355e-05
0.00015103
0.000184353
0.000184967
0.000180804
0.000177906
0.000176117
0.000174925
0.00017407
0.000173431
0.000172934
0.000172527
0.000172178
0.000171865
0.000171574
0.00017129
0.000171008
0.000170722
0.000170431
0.000170133
0.000169827
0.000169511
0.000169183
0.000168841
0.000168486
0.000168117
0.000167731
0.000167328
0.000166905
0.000166463
0.000166003
0.000165524
0.000165028
0.000164513
0.000163979
0.000163426
0.000162854
0.000162262
0.000161648
0.000161012
0.00016035
0.000159663
0.000158949
0.000158211
0.000157447
0.000156656
0.000155836
0.000154988
0.000154112
0.000153206
0.00015227
0.0001513
0.000150294
0.000149247
0.000148157
0.000147022
0.000145842
0.000144608
0.00014332
0.000141965
0.000140543
0.000139058
0.000137335
0.000136224
0.000132468
0.000128396
0.00012378
0.000118796
0.000113645
0.000108478
0.000103456
9.86048e-05
9.39683e-05
8.94624e-05
8.50934e-05
8.07662e-05
7.65058e-05
7.22835e-05
6.80782e-05
6.40405e-05
5.99038e-05
5.62089e-05
5.22856e-05
4.90806e-05
4.57781e-05
4.31371e-05
4.04457e-05
4.02006e-05
3.88661e-05
0.000147465
0.000189378
0.000194962
0.000191394
0.000188108
0.000185896
0.000184344
0.000183174
0.00018225
0.000181495
0.000180852
0.000180282
0.000179759
0.000179263
0.000178779
0.000178296
0.000177809
0.000177314
0.000176809
0.000176291
0.000175758
0.000175209
0.000174639
0.000174051
0.000173442
0.00017281
0.000172153
0.00017147
0.00017076
0.000170023
0.000169261
0.000168472
0.000167656
0.000166812
0.00016594
0.000165041
0.000164113
0.000163155
0.000162165
0.000161141
0.00016008
0.000158983
0.000157849
0.000156679
0.000155469
0.000154219
0.000152926
0.000151592
0.000150215
0.000148793
0.000147323
0.000145801
0.000144222
0.000142581
0.000140874
0.000139098
0.000137246
0.000135313
0.000133286
0.000131153
0.000128941
0.000126403
0.000124559
0.000119462
0.000114125
0.0001082
0.000101876
9.5353e-05
8.88352e-05
8.25692e-05
7.66899e-05
7.13135e-05
6.64171e-05
6.20091e-05
5.80103e-05
5.44054e-05
5.11624e-05
4.82427e-05
4.57089e-05
4.34405e-05
4.15055e-05
3.9851e-05
3.83679e-05
3.77363e-05
3.71544e-05
3.74198e-05
3.72278e-05
3.90112e-05
0.000137314
0.000186151
0.000199044
0.000197471
0.000194259
0.000191752
0.000189865
0.000188359
0.000187103
0.000186026
0.000185076
0.00018421
0.000183398
0.000182619
0.000181854
0.000181091
0.00018032
0.000179538
0.000178741
0.000177925
0.000177088
0.000176227
0.00017534
0.000174425
0.000173481
0.000172506
0.000171497
0.000170452
0.000169371
0.000168252
0.000167095
0.000165901
0.000164669
0.000163398
0.000162088
0.000160737
0.000159347
0.000157914
0.000156437
0.000154914
0.00015334
0.000151715
0.000150039
0.00014831
0.000146526
0.000144684
0.000142783
0.000140822
0.000138799
0.000136713
0.000134559
0.000132334
0.000130031
0.000127645
0.000125168
0.000122597
0.000119926
0.000117151
0.000114261
0.000111242
0.000108134
0.000104675
0.000101922
9.56173e-05
8.937e-05
8.2825e-05
7.62591e-05
6.98966e-05
6.3943e-05
5.8605e-05
5.39795e-05
5.01046e-05
4.69234e-05
4.43601e-05
4.23124e-05
4.06613e-05
3.9341e-05
3.82784e-05
3.74771e-05
3.70917e-05
3.69367e-05
3.69897e-05
3.71006e-05
3.74669e-05
3.77276e-05
3.8655e-05
3.87577e-05
4.04967e-05
0.000120439
0.000172458
0.000194635
0.000197129
0.000194939
0.000192502
0.000190424
0.000188629
0.000187028
0.000185583
0.000184255
0.00018301
0.00018182
0.000180661
0.000179514
0.000178366
0.000177205
0.000176027
0.000174825
0.000173596
0.000172337
0.000171046
0.000169717
0.00016835
0.000166943
0.000165494
0.000164
0.000162456
0.000160862
0.000159216
0.000157517
0.000155766
0.00015396
0.0001521
0.000150184
0.000148212
0.000146183
0.000144096
0.000141948
0.000139737
0.000137458
0.000135109
0.000132689
0.000130196
0.00012763
0.00012499
0.000122273
0.000119483
0.00011662
0.000113687
0.000110687
0.000107623
0.000104495
0.000101307
9.80595e-05
9.47599e-05
9.14131e-05
8.80304e-05
8.46141e-05
8.11762e-05
7.77473e-05
7.41763e-05
7.1211e-05
6.56954e-05
6.06987e-05
5.59568e-05
5.16863e-05
4.79839e-05
4.48892e-05
4.24034e-05
4.04669e-05
3.89931e-05
3.79155e-05
3.71701e-05
3.68552e-05
3.67932e-05
3.68872e-05
3.70888e-05
3.73632e-05
3.77167e-05
3.80716e-05
3.85188e-05
3.88925e-05
3.94286e-05
3.97734e-05
4.0556e-05
4.07974e-05
4.1994e-05
9.77193e-05
0.000146914
0.000178409
0.000187469
0.000187929
0.000186328
0.000184417
0.000182505
0.000180626
0.000178804
0.000177048
0.000175345
0.000173675
0.000172023
0.000170372
0.000168707
0.000167018
0.000165298
0.000163542
0.000161745
0.000159905
0.000158017
0.000156079
0.000154087
0.000152038
0.000149932
0.000147764
0.00014553
0.000143226
0.00014085
0.000138402
0.000135881
0.000133286
0.000130619
0.000127879
0.000125069
0.00012219
0.000119247
0.000116241
0.000113176
0.000110056
0.000106883
0.000103664
0.000100407
9.7122e-05
9.38182e-05
9.0507e-05
8.72009e-05
8.39137e-05
8.06595e-05
7.74527e-05
7.43074e-05
7.12355e-05
6.82482e-05
6.53556e-05
6.25684e-05
5.98943e-05
5.73458e-05
5.49266e-05
5.26507e-05
5.0518e-05
4.84883e-05
4.68221e-05
4.43016e-05
4.22465e-05
4.05028e-05
3.91085e-05
3.80426e-05
3.7307e-05
3.69553e-05
3.68428e-05
3.68857e-05
3.70457e-05
3.72911e-05
3.7608e-05
3.79707e-05
3.83676e-05
3.87858e-05
3.92057e-05
3.96428e-05
4.00437e-05
4.04867e-05
4.08497e-05
4.13166e-05
4.16186e-05
4.22068e-05
4.24766e-05
4.33392e-05
9.11043e-05
0.000113726
0.000147082
0.000164401
0.000169833
0.000170443
0.000169416
0.000167773
0.000165818
0.000163694
0.000161501
0.000159276
0.000157027
0.000154752
0.000152444
0.000150095
0.000147696
0.000145242
0.000142727
0.000140149
0.000137507
0.0001348
0.000132025
0.000129182
0.00012627
0.000123292
0.00012025
0.000117143
0.000113975
0.00011075
0.000107474
0.000104156
0.000100805
9.74337e-05
9.40549e-05
9.06815e-05
8.73275e-05
8.40072e-05
8.07356e-05
7.75262e-05
7.43918e-05
7.13441e-05
6.83942e-05
6.55539e-05
6.28334e-05
6.02421e-05
5.77889e-05
5.54807e-05
5.3322e-05
5.13159e-05
4.94644e-05
4.77669e-05
4.62189e-05
4.48169e-05
4.3555e-05
4.24226e-05
4.14079e-05
4.051e-05
3.97235e-05
3.90386e-05
3.84391e-05
3.79281e-05
3.75329e-05
3.72209e-05
3.70647e-05
3.70258e-05
3.70929e-05
3.72477e-05
3.74753e-05
3.77564e-05
3.80758e-05
3.8417e-05
3.87752e-05
3.91409e-05
3.95166e-05
3.98957e-05
4.02797e-05
4.06648e-05
4.10407e-05
4.14188e-05
4.17645e-05
4.21282e-05
4.24316e-05
4.27941e-05
4.30401e-05
4.34711e-05
4.37398e-05
4.42574e-05
8.10582e-05
8.21199e-05
0.0001044
0.000124625
0.000135882
0.000140483
0.000141586
0.000140954
0.00013936
0.000137162
0.000134622
0.000131875
0.00012899
0.000126
0.000122927
0.00011978
0.000116567
0.000113293
0.000109966
0.000106596
0.000103195
9.97738e-05
9.63458e-05
9.29221e-05
8.9515e-05
8.61382e-05
8.28057e-05
7.953e-05
7.63237e-05
7.31986e-05
7.01674e-05
6.72422e-05
6.44348e-05
6.17576e-05
5.92197e-05
5.68292e-05
5.45924e-05
5.2511e-05
5.05879e-05
4.88219e-05
4.72101e-05
4.57488e-05
4.44302e-05
4.32489e-05
4.21946e-05
4.12564e-05
4.04323e-05
3.97124e-05
3.90808e-05
3.85421e-05
3.80908e-05
3.77072e-05
3.73969e-05
3.72211e-05
3.71224e-05
3.7074e-05
3.70654e-05
3.70922e-05
3.71514e-05
3.724e-05
3.73532e-05
3.7499e-05
3.76384e-05
3.78829e-05
3.81337e-05
3.84136e-05
3.87137e-05
3.90275e-05
3.93516e-05
3.96795e-05
4.00098e-05
4.03368e-05
4.0662e-05
4.09815e-05
4.12995e-05
4.16132e-05
4.19253e-05
4.22341e-05
4.2534e-05
4.28313e-05
4.31051e-05
4.3384e-05
4.36224e-05
4.38895e-05
4.40829e-05
4.43971e-05
4.46245e-05
4.4922e-05
6.61987e-05
6.69533e-05
6.91526e-05
7.94628e-05
8.94585e-05
9.5872e-05
9.90036e-05
9.98302e-05
9.91349e-05
9.74076e-05
9.50429e-05
9.23044e-05
8.93509e-05
8.62813e-05
8.31599e-05
8.00307e-05
7.69245e-05
7.3864e-05
7.08696e-05
6.79603e-05
6.51538e-05
6.24664e-05
5.99102e-05
5.74955e-05
5.52277e-05
5.31124e-05
5.11518e-05
4.93449e-05
4.76916e-05
4.61864e-05
4.48259e-05
4.36035e-05
4.25097e-05
4.15406e-05
4.06831e-05
3.99315e-05
3.9283e-05
3.87179e-05
3.82384e-05
3.78415e-05
3.75036e-05
3.72402e-05
3.70778e-05
3.6997e-05
3.69639e-05
3.69665e-05
3.69996e-05
3.70593e-05
3.71417e-05
3.72447e-05
3.73661e-05
3.75028e-05
3.76532e-05
3.78157e-05
3.79875e-05
3.81666e-05
3.83518e-05
3.8542e-05
3.8737e-05
3.89363e-05
3.91383e-05
3.93519e-05
3.95397e-05
3.98191e-05
4.00808e-05
4.03526e-05
4.06281e-05
4.09039e-05
4.11791e-05
4.14507e-05
4.1719e-05
4.19809e-05
4.22383e-05
4.24888e-05
4.27356e-05
4.29769e-05
4.32152e-05
4.34491e-05
4.3676e-05
4.38984e-05
4.41049e-05
4.43099e-05
4.44893e-05
4.46795e-05
4.48259e-05
4.50472e-05
4.52118e-05
4.54079e-05
5.38122e-05
5.39201e-05
5.26867e-05
5.26819e-05
5.52298e-05
5.76763e-05
5.92867e-05
5.98963e-05
5.96299e-05
5.86803e-05
5.72706e-05
5.56029e-05
5.38314e-05
5.20589e-05
5.03464e-05
4.873e-05
4.72293e-05
4.58461e-05
4.45809e-05
4.34309e-05
4.23925e-05
4.14618e-05
4.06323e-05
3.99024e-05
3.92593e-05
3.87038e-05
3.82274e-05
3.78183e-05
3.74849e-05
3.72057e-05
3.69885e-05
3.68633e-05
3.68116e-05
3.68031e-05
3.68267e-05
3.68772e-05
3.69515e-05
3.70458e-05
3.7158e-05
3.72859e-05
3.74266e-05
3.75788e-05
3.77406e-05
3.79098e-05
3.80842e-05
3.82624e-05
3.84435e-05
3.86267e-05
3.88112e-05
3.89966e-05
3.91824e-05
3.93681e-05
3.95534e-05
3.97382e-05
3.99221e-05
4.01052e-05
4.02874e-05
4.04687e-05
4.06493e-05
4.08293e-05
4.10079e-05
4.11925e-05
4.13533e-05
4.15839e-05
4.17958e-05
4.20126e-05
4.22295e-05
4.24439e-05
4.26556e-05
4.2863e-05
4.30663e-05
4.32638e-05
4.34569e-05
4.3644e-05
4.38274e-05
4.40057e-05
4.4181e-05
4.4352e-05
4.45179e-05
4.46789e-05
4.48296e-05
4.4976e-05
4.51067e-05
4.52396e-05
4.53455e-05
4.55009e-05
4.55956e-05
4.57336e-05
4.8164e-05
4.75046e-05
4.63624e-05
4.51956e-05
4.43646e-05
4.37522e-05
4.33179e-05
4.28756e-05
4.23459e-05
4.16808e-05
4.0923e-05
4.01391e-05
3.93845e-05
3.87e-05
3.81031e-05
3.75948e-05
3.72113e-05
3.69131e-05
3.67146e-05
3.66095e-05
3.65629e-05
3.65581e-05
3.65857e-05
3.66399e-05
3.6716e-05
3.68114e-05
3.69234e-05
3.70497e-05
3.71888e-05
3.73386e-05
3.74978e-05
3.7665e-05
3.78382e-05
3.80157e-05
3.81961e-05
3.83786e-05
3.85623e-05
3.87467e-05
3.89312e-05
3.91153e-05
3.92986e-05
3.94807e-05
3.96614e-05
3.98403e-05
4.00173e-05
4.01921e-05
4.03647e-05
4.0535e-05
4.07028e-05
4.08681e-05
4.10308e-05
4.11911e-05
4.13489e-05
4.15041e-05
4.1657e-05
4.18076e-05
4.19561e-05
4.21025e-05
4.22471e-05
4.23901e-05
4.25309e-05
4.26752e-05
4.28003e-05
4.29763e-05
4.31366e-05
4.32994e-05
4.34611e-05
4.36199e-05
4.37758e-05
4.39278e-05
4.40763e-05
4.42201e-05
4.43602e-05
4.44956e-05
4.46279e-05
4.47561e-05
4.48818e-05
4.50038e-05
4.51223e-05
4.52363e-05
4.53438e-05
4.54463e-05
4.55396e-05
4.5631e-05
4.57051e-05
4.58116e-05
4.58828e-05
4.59829e-05
4.64345e-05
4.5743e-05
4.49489e-05
4.41244e-05
4.33279e-05
4.25835e-05
4.18975e-05
4.12626e-05
4.06692e-05
4.0104e-05
3.9564e-05
3.90555e-05
3.85918e-05
3.81896e-05
3.7865e-05
3.76287e-05
3.74849e-05
3.74272e-05
3.74433e-05
3.75176e-05
3.76343e-05
3.77798e-05
3.79438e-05
3.8119e-05
3.83006e-05
3.84854e-05
3.86716e-05
3.88579e-05
3.90437e-05
3.92284e-05
3.94116e-05
3.95931e-05
3.97726e-05
3.99499e-05
4.01249e-05
4.02974e-05
4.04673e-05
4.06344e-05
4.07987e-05
4.096e-05
4.11184e-05
4.12739e-05
4.14263e-05
4.15756e-05
4.1722e-05
4.18653e-05
4.20056e-05
4.2143e-05
4.22774e-05
4.24089e-05
4.25375e-05
4.26634e-05
4.27866e-05
4.29072e-05
4.30252e-05
4.31409e-05
4.32543e-05
4.33656e-05
4.3475e-05
4.35827e-05
4.36882e-05
4.37957e-05
4.38886e-05
4.40177e-05
4.41345e-05
4.42525e-05
4.43692e-05
4.44834e-05
4.4595e-05
4.47036e-05
4.48093e-05
4.49115e-05
4.5011e-05
4.51069e-05
4.52004e-05
4.52909e-05
4.53795e-05
4.54652e-05
4.55484e-05
4.56281e-05
4.57036e-05
4.57745e-05
4.58399e-05
4.5904e-05
4.59565e-05
4.60304e-05
4.60964e-05
4.61695e-05
4.61802e-05
4.56282e-05
4.50691e-05
4.45225e-05
4.39948e-05
4.34894e-05
4.30088e-05
4.25539e-05
4.21239e-05
4.17156e-05
4.13258e-05
4.09535e-05
4.06021e-05
4.02807e-05
4.00026e-05
3.97815e-05
3.96274e-05
3.95438e-05
3.95271e-05
3.95681e-05
3.96546e-05
3.97741e-05
3.99156e-05
4.00705e-05
4.02325e-05
4.03975e-05
4.05628e-05
4.07268e-05
4.08886e-05
4.10479e-05
4.12042e-05
4.13575e-05
4.15077e-05
4.16549e-05
4.17988e-05
4.19396e-05
4.20773e-05
4.22118e-05
4.23431e-05
4.24713e-05
4.25965e-05
4.27185e-05
4.28375e-05
4.29536e-05
4.30666e-05
4.31769e-05
4.32842e-05
4.33889e-05
4.34908e-05
4.35901e-05
4.36868e-05
4.3781e-05
4.38729e-05
4.39625e-05
4.40498e-05
4.41351e-05
4.42185e-05
4.43e-05
4.43798e-05
4.44581e-05
4.45346e-05
4.46122e-05
4.46791e-05
4.47713e-05
4.48543e-05
4.49381e-05
4.50205e-05
4.5101e-05
4.51795e-05
4.52556e-05
4.53297e-05
4.54013e-05
4.54708e-05
4.55379e-05
4.56032e-05
4.56663e-05
4.57279e-05
4.57875e-05
4.58454e-05
4.59005e-05
4.59531e-05
4.60016e-05
4.60454e-05
4.60974e-05
4.61475e-05
4.61986e-05
4.62447e-05
4.62914e-05
4.62501e-05
4.58609e-05
4.54724e-05
4.5099e-05
4.47423e-05
4.44015e-05
4.4076e-05
4.37656e-05
4.347e-05
4.31878e-05
4.2917e-05
4.2655e-05
4.24016e-05
4.21598e-05
4.19374e-05
4.17452e-05
4.1594e-05
4.14918e-05
4.14411e-05
4.14395e-05
4.14802e-05
4.15542e-05
4.16524e-05
4.17667e-05
4.18905e-05
4.2019e-05
4.21492e-05
4.2279e-05
4.24071e-05
4.25329e-05
4.26559e-05
4.2776e-05
4.28932e-05
4.30074e-05
4.31186e-05
4.32269e-05
4.33322e-05
4.34347e-05
4.35344e-05
4.36312e-05
4.37254e-05
4.38168e-05
4.39057e-05
4.3992e-05
4.40758e-05
4.41572e-05
4.42362e-05
4.4313e-05
4.43875e-05
4.44599e-05
4.45302e-05
4.45985e-05
4.4665e-05
4.47295e-05
4.47924e-05
4.48536e-05
4.49132e-05
4.49714e-05
4.50283e-05
4.50839e-05
4.51382e-05
4.51931e-05
4.52403e-05
4.5305e-05
4.53631e-05
4.54216e-05
4.54791e-05
4.55351e-05
4.55897e-05
4.56425e-05
4.56939e-05
4.57436e-05
4.57918e-05
4.58383e-05
4.58835e-05
4.59272e-05
4.59698e-05
4.6011e-05
4.6051e-05
4.60889e-05
4.61251e-05
4.61601e-05
4.61969e-05
4.62343e-05
4.62708e-05
4.6307e-05
4.63406e-05
4.63726e-05
4.63312e-05
4.60682e-05
4.58039e-05
4.55492e-05
4.53058e-05
4.50733e-05
4.48508e-05
4.4638e-05
4.44344e-05
4.42399e-05
4.40532e-05
4.38727e-05
4.36969e-05
4.35261e-05
4.33638e-05
4.32164e-05
4.30919e-05
4.2998e-05
4.29394e-05
4.29171e-05
4.29285e-05
4.29685e-05
4.30305e-05
4.31083e-05
4.31962e-05
4.32899e-05
4.33863e-05
4.34832e-05
4.35792e-05
4.36735e-05
4.37657e-05
4.38556e-05
4.3943e-05
4.40279e-05
4.41103e-05
4.41903e-05
4.42679e-05
4.43431e-05
4.44161e-05
4.44867e-05
4.45552e-05
4.46216e-05
4.46859e-05
4.47482e-05
4.48086e-05
4.48671e-05
4.49237e-05
4.49786e-05
4.50318e-05
4.50833e-05
4.51333e-05
4.51818e-05
4.52288e-05
4.52745e-05
4.53189e-05
4.5362e-05
4.54039e-05
4.54448e-05
4.54847e-05
4.55236e-05
4.55616e-05
4.55999e-05
4.56327e-05
4.56777e-05
4.5718e-05
4.57585e-05
4.57983e-05
4.5837e-05
4.58747e-05
4.59111e-05
4.59466e-05
4.59808e-05
4.6014e-05
4.60461e-05
4.60772e-05
4.61074e-05
4.61367e-05
4.61651e-05
4.61928e-05
4.62197e-05
4.62488e-05
4.62776e-05
4.6306e-05
4.63329e-05
4.63584e-05
4.63826e-05
4.6406e-05
4.64283e-05
4.63857e-05
4.62087e-05
4.60302e-05
4.58575e-05
4.5692e-05
4.55335e-05
4.53817e-05
4.5236e-05
4.50964e-05
4.49626e-05
4.48342e-05
4.47101e-05
4.45894e-05
4.44716e-05
4.4358e-05
4.42521e-05
4.41592e-05
4.40848e-05
4.40334e-05
4.4007e-05
4.40052e-05
4.40252e-05
4.4063e-05
4.4114e-05
4.41741e-05
4.42398e-05
4.43084e-05
4.4378e-05
4.44474e-05
4.45157e-05
4.45825e-05
4.46476e-05
4.47107e-05
4.4772e-05
4.48314e-05
4.48888e-05
4.49445e-05
4.49983e-05
4.50504e-05
4.51008e-05
4.51495e-05
4.51967e-05
4.52422e-05
4.52863e-05
4.5329e-05
4.53702e-05
4.54101e-05
4.54487e-05
4.54861e-05
4.55223e-05
4.55573e-05
4.55912e-05
4.56241e-05
4.5656e-05
4.56869e-05
4.57169e-05
4.57461e-05
4.57745e-05
4.58022e-05
4.58293e-05
4.58555e-05
4.58821e-05
4.59047e-05
4.59357e-05
4.59636e-05
4.59915e-05
4.60189e-05
4.60455e-05
4.60714e-05
4.60965e-05
4.61208e-05
4.61443e-05
4.61672e-05
4.61892e-05
4.62106e-05
4.62314e-05
4.62514e-05
4.62731e-05
4.6296e-05
4.63182e-05
4.63397e-05
4.63596e-05
4.63785e-05
4.63962e-05
4.64139e-05
4.64313e-05
4.64492e-05
4.64658e-05
4.64216e-05
4.63021e-05
4.61814e-05
4.60644e-05
4.59521e-05
4.58443e-05
4.57408e-05
4.56414e-05
4.55459e-05
4.54543e-05
4.53663e-05
4.52813e-05
4.51986e-05
4.51177e-05
4.50392e-05
4.49651e-05
4.48988e-05
4.48439e-05
4.48039e-05
4.47808e-05
4.47748e-05
4.47846e-05
4.48076e-05
4.48408e-05
4.48814e-05
4.49266e-05
4.49744e-05
4.50232e-05
4.50722e-05
4.51205e-05
4.51679e-05
4.5214e-05
4.52587e-05
4.5302e-05
4.5344e-05
4.53845e-05
4.54237e-05
4.54616e-05
4.54982e-05
4.55336e-05
4.55678e-05
4.56008e-05
4.56327e-05
4.56635e-05
4.56933e-05
4.5722e-05
4.57498e-05
4.57767e-05
4.58027e-05
4.58278e-05
4.58521e-05
4.58757e-05
4.58984e-05
4.59205e-05
4.59419e-05
4.59627e-05
4.59829e-05
4.60025e-05
4.60216e-05
4.60402e-05
4.60583e-05
4.60766e-05
4.60922e-05
4.61135e-05
4.61327e-05
4.61519e-05
4.61707e-05
4.6189e-05
4.62067e-05
4.62239e-05
4.62406e-05
4.62567e-05
4.62724e-05
4.62876e-05
4.6302e-05
4.63185e-05
4.63361e-05
4.63535e-05
4.63703e-05
4.63858e-05
4.64001e-05
4.64134e-05
4.64264e-05
4.64393e-05
4.64527e-05
4.64657e-05
4.64791e-05
4.64908e-05
4.64458e-05
4.63649e-05
4.62832e-05
4.62038e-05
4.61275e-05
4.60542e-05
4.59838e-05
4.5916e-05
4.58508e-05
4.57881e-05
4.57279e-05
4.56697e-05
4.56132e-05
4.55579e-05
4.5504e-05
4.54527e-05
4.54061e-05
4.53669e-05
4.53375e-05
4.53194e-05
4.53132e-05
4.5318e-05
4.53323e-05
4.53542e-05
4.53814e-05
4.54123e-05
4.54453e-05
4.54792e-05
4.55133e-05
4.5547e-05
4.55801e-05
4.56123e-05
4.56436e-05
4.56739e-05
4.57031e-05
4.57314e-05
4.57588e-05
4.57852e-05
4.58106e-05
4.58352e-05
4.5859e-05
4.58819e-05
4.5904e-05
4.59254e-05
4.5946e-05
4.59659e-05
4.59851e-05
4.60037e-05
4.60217e-05
4.6039e-05
4.60558e-05
4.6072e-05
4.60877e-05
4.61029e-05
4.61177e-05
4.6132e-05
4.61459e-05
4.61594e-05
4.61725e-05
4.61853e-05
4.61977e-05
4.62103e-05
4.6221e-05
4.62356e-05
4.62487e-05
4.62619e-05
4.62748e-05
4.62874e-05
4.62996e-05
4.63114e-05
4.63228e-05
4.63338e-05
4.63459e-05
4.63583e-05
4.63708e-05
4.63834e-05
4.63963e-05
4.64088e-05
4.64208e-05
4.64317e-05
4.64417e-05
4.6451e-05
4.64603e-05
4.64696e-05
4.64794e-05
4.64887e-05
4.64984e-05
4.65065e-05
4.64622e-05
4.64074e-05
4.63519e-05
4.62981e-05
4.62462e-05
4.61964e-05
4.61484e-05
4.61022e-05
4.60577e-05
4.60148e-05
4.59736e-05
4.59338e-05
4.58951e-05
4.58573e-05
4.58204e-05
4.57851e-05
4.57528e-05
4.57253e-05
4.57043e-05
4.5691e-05
4.56857e-05
4.56882e-05
4.56974e-05
4.57119e-05
4.57303e-05
4.57513e-05
4.5774e-05
4.57974e-05
4.58209e-05
4.58443e-05
4.58672e-05
4.58896e-05
4.59112e-05
4.59322e-05
4.59525e-05
4.59721e-05
4.5991e-05
4.60093e-05
4.60269e-05
4.60439e-05
4.60603e-05
4.60761e-05
4.60913e-05
4.61061e-05
4.61203e-05
4.6134e-05
4.61472e-05
4.616e-05
4.61724e-05
4.61843e-05
4.61959e-05
4.6207e-05
4.62178e-05
4.62283e-05
4.62384e-05
4.62482e-05
4.62577e-05
4.6267e-05
4.6276e-05
4.62848e-05
4.62933e-05
4.63019e-05
4.63092e-05
4.63192e-05
4.63282e-05
4.63373e-05
4.63462e-05
4.63549e-05
4.63633e-05
4.63726e-05
4.6382e-05
4.63914e-05
4.64004e-05
4.64092e-05
4.64181e-05
4.64274e-05
4.64372e-05
4.64469e-05
4.64561e-05
4.64642e-05
4.64714e-05
4.64779e-05
4.64844e-05
4.64909e-05
4.64978e-05
4.65042e-05
4.65111e-05
4.65166e-05
4.64733e-05
4.64361e-05
4.63984e-05
4.63619e-05
4.63266e-05
4.62927e-05
4.626e-05
4.62285e-05
4.61981e-05
4.61688e-05
4.61406e-05
4.61134e-05
4.60869e-05
4.6061e-05
4.60357e-05
4.60115e-05
4.59893e-05
4.59702e-05
4.59555e-05
4.5946e-05
4.5942e-05
4.59434e-05
4.59494e-05
4.59592e-05
4.59717e-05
4.59861e-05
4.60016e-05
4.60177e-05
4.60339e-05
4.605e-05
4.60658e-05
4.60812e-05
4.60962e-05