/*--------------------------------*- C++ -*----------------------------------*\
| =========                 |                                                 |
| \\      /  F ield         | OpenFOAM: The Open Source CFD Toolbox           |
|  \\    /   O peration     | Version:  5.x                                   |
|   \\  /    A nd           | Web:      www.OpenFOAM.org                      |
|    \\/     M anipulation  |                                                 |
\*---------------------------------------------------------------------------*/
FoamFile
{
    version     2.0;
    format      ascii;
    class       volScalarField;
    location    "50";
    object      p;
}
// * * * * * * * * * * * * * * * * * * * * * * * * * * * * * * * * * * * * * //

dimensions      [0 2 -2 0 0 0 0];

internalField   nonuniform List<scalar> 
20540
(
-55.995
-52.0899
-55.9951
-52.0925
-55.9952
-52.0948
-55.9954
-52.0959
-55.9958
-52.0965
-55.9963
-52.097
-55.997
-52.0979
-55.9981
-52.0998
-55.9996
-52.1036
-56.0017
-52.1106
-56.0043
-52.1213
-56.0072
-52.1358
-56.0104
-52.1533
-56.0138
-52.1737
-56.0176
-52.1981
-56.022
-52.2276
-56.0273
-52.2631
-56.0337
-52.3056
-56.0413
-52.3562
-56.0503
-52.4162
-56.061
-52.4871
-56.0735
-52.5704
-56.0881
-52.6675
-56.1049
-52.7797
-56.1241
-52.9079
-56.1457
-53.052
-56.1694
-53.2106
-56.1945
-53.3797
-56.2201
-53.5519
-56.2439
-53.7136
-56.2604
-53.8282
-56.2683
-53.8862
-56.2679
-53.8902
-56.2593
-53.8405
-56.2422
-53.7359
-56.2185
-53.588
-56.1931
-53.4285
-56.168
-53.2699
-56.1443
-53.1198
-56.1226
-52.9822
-56.1032
-52.8586
-56.086
-52.7495
-56.071
-52.6543
-56.058
-52.572
-56.0469
-52.5014
-56.0374
-52.4411
-56.0294
-52.3899
-56.0226
-52.3466
-56.0169
-52.3101
-56.0121
-52.2795
-56.008
-52.254
-56.0045
-52.2327
-56.0014
-52.2145
-55.9984
-52.1989
-55.9957
-52.1862
-55.9933
-52.1769
-55.9915
-52.171
-55.9902
-52.1677
-55.9892
-52.1659
-55.9885
-52.165
-55.9881
-52.1643
-55.9878
-52.1636
-55.9875
-52.1624
-55.9874
-52.1602
-55.9874
-52.1577
-58.0106
-71.2478
-74.658
-75.5378
-76.9053
-78.2355
-79.2646
-80.1347
-80.961
-81.7235
-82.4442
-83.1219
-83.7749
-84.4016
-85.01
-85.5988
-86.1694
-86.7221
-87.2574
-87.777
-88.2809
-88.7709
-89.2468
-89.7097
-90.1591
-90.5961
-91.0209
-91.4343
-91.8363
-92.2277
-92.6087
-92.9796
-93.3405
-93.6921
-94.035
-94.3698
-94.6972
-95.0184
-95.3351
-95.6492
-95.9632
-96.2798
-96.6026
-96.9365
-97.2872
-97.6615
-98.0682
-98.5179
-99.0231
-99.599
-100.263
-101.037
-101.945
-103.016
-104.282
-105.78
-107.558
-109.666
-112.175
-115.157
-118.745
-123.09
-128.368
-133.068
-136.706
-140.661
-145.118
-149.886
-155.046
-160.57
-166.622
-173.14
-180.311
-188.028
-196.484
-205.606
-215.474
-226.354
-237.658
-250.945
-263.274
-279.998
-292.323
-311.221
-327.935
-316.524
-399.227
-167.58
-58.0094
-71.2473
-74.6579
-75.5378
-76.9053
-78.2355
-79.2646
-80.1347
-80.961
-81.7235
-82.4442
-83.1219
-83.7749
-84.4016
-85.01
-85.5988
-86.1694
-86.7221
-87.2574
-87.777
-88.2809
-88.7709
-89.2469
-89.7097
-90.1592
-90.5961
-91.0209
-91.4343
-91.8364
-92.2277
-92.6087
-92.9796
-93.3406
-93.6922
-94.035
-94.3698
-94.6973
-95.0185
-95.3351
-95.6493
-95.9633
-96.2798
-96.6026
-96.9365
-97.2872
-97.6616
-98.0683
-98.5179
-99.0232
-99.5991
-100.263
-101.037
-101.945
-103.016
-104.282
-105.78
-107.559
-109.666
-112.175
-115.157
-118.745
-123.091
-128.368
-133.069
-136.707
-140.662
-145.118
-149.887
-155.048
-160.571
-166.624
-173.142
-180.313
-188.031
-196.487
-205.609
-215.478
-226.358
-237.663
-250.952
-263.28
-280.009
-292.331
-311.237
-327.958
-316.577
-399.458
-179.275
-58.0043
-71.246
-74.6577
-75.5377
-76.9052
-78.2355
-79.2646
-80.1347
-80.961
-81.7235
-82.4442
-83.1219
-83.775
-84.4016
-85.01
-85.5988
-86.1694
-86.7221
-87.2574
-87.777
-88.2809
-88.7709
-89.2469
-89.7098
-90.1592
-90.5962
-91.0209
-91.4343
-91.8364
-92.2278
-92.6087
-92.9797
-93.3406
-93.6922
-94.0351
-94.3699
-94.6973
-95.0185
-95.3352
-95.6494
-95.9633
-96.2799
-96.6027
-96.9366
-97.2873
-97.6617
-98.0684
-98.518
-99.0233
-99.5992
-100.263
-101.037
-101.946
-103.017
-104.282
-105.781
-107.559
-109.666
-112.175
-115.158
-118.746
-123.091
-128.369
-133.069
-136.708
-140.663
-145.12
-149.889
-155.05
-160.574
-166.628
-173.146
-180.318
-188.035
-196.492
-205.615
-215.485
-226.366
-237.672
-250.964
-263.291
-280.031
-292.344
-311.272
-328
-316.792
-399.28
-195.655
-57.9938
-71.2434
-74.6574
-75.5376
-76.9052
-78.2355
-79.2646
-80.1347
-80.961
-81.7235
-82.4442
-83.1219
-83.775
-84.4017
-85.0101
-85.5989
-86.1695
-86.7222
-87.2575
-87.7771
-88.281
-88.771
-89.2469
-89.7098
-90.1593
-90.5962
-91.021
-91.4344
-91.8365
-92.2279
-92.6088
-92.9798
-93.3407
-93.6923
-94.0352
-94.37
-94.6974
-95.0187
-95.3353
-95.6495
-95.9635
-96.28
-96.6029
-96.9368
-97.2875
-97.6619
-98.0686
-98.5183
-99.0236
-99.5995
-100.264
-101.038
-101.946
-103.017
-104.283
-105.781
-107.559
-109.667
-112.176
-115.159
-118.747
-123.093
-128.371
-133.072
-136.71
-140.666
-145.124
-149.893
-155.055
-160.58
-166.634
-173.153
-180.325
-188.043
-196.501
-205.624
-215.496
-226.379
-237.685
-250.984
-263.306
-280.066
-292.361
-311.33
-328.057
-317.316
-398.67
-215.94
-57.9821
-71.239
-74.6569
-75.5375
-76.9052
-78.2355
-79.2646
-80.1347
-80.961
-81.7235
-82.4443
-83.122
-83.775
-84.4017
-85.0101
-85.5989
-86.1695
-86.7222
-87.2575
-87.7772
-88.2811
-88.7711
-89.247
-89.7099
-90.1594
-90.5963
-91.0211
-91.4345
-91.8366
-92.228
-92.609
-92.9799
-93.3409
-93.6925
-94.0354
-94.3702
-94.6977
-95.0189
-95.3356
-95.6498
-95.9638
-96.2803
-96.6032
-96.9371
-97.2878
-97.6623
-98.069
-98.5187
-99.024
-99.6
-100.264
-101.038
-101.947
-103.018
-104.284
-105.782
-107.56
-109.668
-112.177
-115.16
-118.748
-123.094
-128.374
-133.076
-136.715
-140.672
-145.13
-149.9
-155.062
-160.587
-166.642
-173.161
-180.334
-188.053
-196.511
-205.636
-215.508
-226.393
-237.699
-251.004
-263.317
-280.101
-292.378
-311.383
-328.109
-318.265
-397.337
-239.682
-57.9735
-71.2336
-74.6563
-75.5374
-76.9052
-78.2355
-79.2647
-80.1348
-80.9611
-81.7236
-82.4443
-83.122
-83.7751
-84.4018
-85.0102
-85.599
-86.1696
-86.7223
-87.2576
-87.7773
-88.2812
-88.7712
-89.2472
-89.7101
-90.1595
-90.5965
-91.0213
-91.4347
-91.8368
-92.2282
-92.6092
-92.9801
-93.3411
-93.6927
-94.0356
-94.3705
-94.6979
-95.0192
-95.3359
-95.6501
-95.9641
-96.2807
-96.6036
-96.9376
-97.2883
-97.6627
-98.0695
-98.5193
-99.0246
-99.6007
-100.265
-101.039
-101.948
-103.019
-104.285
-105.783
-107.562
-109.669
-112.179
-115.161
-118.75
-123.096
-128.377
-133.081
-136.721
-140.678
-145.136
-149.906
-155.069
-160.594
-166.649
-173.168
-180.342
-188.06
-196.519
-205.643
-215.515
-226.4
-237.702
-251.012
-263.314
-280.116
-292.381
-311.411
-328.102
-319.825
-394.931
-267.444
-57.9697
-71.2274
-74.6556
-75.5373
-76.9052
-78.2355
-79.2647
-80.1348
-80.9611
-81.7237
-82.4444
-83.1221
-83.7752
-84.4019
-85.0103
-85.5991
-86.1697
-86.7224
-87.2577
-87.7774
-88.2813
-88.7713
-89.2473
-89.7102
-90.1597
-90.5967
-91.0215
-91.4349
-91.837
-92.2284
-92.6094
-92.9804
-93.3414
-93.693
-94.0359
-94.3708
-94.6983
-95.0195
-95.3362
-95.6505
-95.9645
-96.2811
-96.604
-96.938
-97.2888
-97.6633
-98.0701
-98.5199
-99.0253
-99.6014
-100.266
-101.04
-101.948
-103.019
-104.286
-105.784
-107.563
-109.67
-112.18
-115.163
-118.751
-123.098
-128.38
-133.086
-136.727
-140.684
-145.142
-149.912
-155.074
-160.599
-166.653
-173.172
-180.344
-188.061
-196.519
-205.641
-215.51
-226.393
-237.687
-251.003
-263.283
-280.104
-292.351
-311.436
-327.944
-322.278
-391.22
-299.05
-57.9709
-71.2207
-74.6547
-75.5372
-76.9052
-78.2355
-79.2648
-80.1349
-80.9612
-81.7237
-82.4445
-83.1222
-83.7753
-84.402
-85.0104
-85.5992
-86.1698
-86.7226
-87.2579
-87.7775
-88.2814
-88.7715
-89.2475
-89.7104
-90.1598
-90.5968
-91.0217
-91.4351
-91.8372
-92.2286
-92.6096
-92.9806
-93.3416
-93.6933
-94.0362
-94.3711
-94.6986
-95.0199
-95.3366
-95.6509
-95.965
-96.2816
-96.6045
-96.9385
-97.2893
-97.6638
-98.0707
-98.5205
-99.0259
-99.602
-100.266
-101.041
-101.949
-103.02
-104.286
-105.785
-107.564
-109.671
-112.181
-115.164
-118.752
-123.098
-128.382
-133.089
-136.731
-140.687
-145.145
-149.914
-155.075
-160.599
-166.652
-173.169
-180.339
-188.053
-196.508
-205.626
-215.488
-226.369
-237.645
-250.967
-263.208
-280.057
-292.258
-311.487
-327.557
-325.831
-386.164
-333.763
-57.9764
-71.2131
-74.6534
-75.537
-76.9051
-78.2356
-79.2648
-80.135
-80.9613
-81.7238
-82.4446
-83.1223
-83.7754
-84.4021
-85.0105
-85.5993
-86.1699
-86.7227
-87.258
-87.7776
-88.2816
-88.7716
-89.2476
-89.7105
-90.16
-90.597
-91.0219
-91.4353
-91.8374
-92.2289
-92.6099
-92.9809
-93.3419
-93.6936
-94.0366
-94.3714
-94.699
-95.0203
-95.337
-95.6513
-95.9654
-96.282
-96.605
-96.939
-97.2898
-97.6644
-98.0712
-98.5211
-99.0265
-99.6027
-100.267
-101.041
-101.95
-103.021
-104.287
-105.786
-107.564
-109.672
-112.181
-115.163
-118.752
-123.096
-128.38
-133.09
-136.731
-140.687
-145.143
-149.911
-155.07
-160.592
-166.643
-173.156
-180.323
-188.032
-196.48
-205.591
-215.44
-226.315
-237.562
-250.896
-263.074
-279.976
-292.079
-311.634
-326.895
-330.574
-379.815
-369.503
-57.9846
-71.2046
-74.6516
-75.5367
-76.9051
-78.2356
-79.2649
-80.135
-80.9613
-81.7239
-82.4446
-83.1224
-83.7755
-84.4022
-85.0106
-85.5994
-86.17
-86.7228
-87.2581
-87.7778
-88.2817
-88.7718
-89.2478
-89.7107
-90.1602
-90.5972
-91.0221
-91.4355
-91.8377
-92.2291
-92.6101
-92.9812
-93.3422
-93.6939
-94.0369
-94.3717
-94.6993
-95.0206
-95.3374
-95.6517
-95.9658
-96.2824
-96.6054
-96.9395
-97.2903
-97.6648
-98.0717
-98.5216
-99.027
-99.6031
-100.268
-101.042
-101.95
-103.021
-104.287
-105.786
-107.564
-109.671
-112.18
-115.162
-118.749
-123.091
-128.372
-133.083
-136.726
-140.679
-145.133
-149.897
-155.054
-160.572
-166.619
-173.127
-180.288
-187.989
-196.428
-205.529
-215.362
-226.233
-237.44
-250.794
-262.888
-279.882
-291.794
-311.952
-325.873
-336.515
-372.106
-403.262
-57.9935
-71.1951
-74.649
-75.5361
-76.905
-78.2356
-79.2649
-80.1351
-80.9614
-81.724
-82.4447
-83.1224
-83.7756
-84.4023
-85.0107
-85.5996
-86.1702
-86.7229
-87.2582
-87.7779
-88.2818
-88.7719
-89.2479
-89.7109
-90.1604
-90.5974
-91.0222
-91.4357
-91.8379
-92.2293
-92.6104
-92.9814
-93.3424
-93.6941
-94.0371
-94.372
-94.6996
-95.0209
-95.3377
-95.652
-95.9661
-96.2828
-96.6057
-96.9398
-97.2906
-97.6651
-98.072
-98.5218
-99.0272
-99.6033
-100.268
-101.042
-101.95
-103.021
-104.287
-105.785
-107.563
-109.669
-112.178
-115.159
-118.744
-123.08
-128.351
-133.061
-136.707
-140.657
-145.104
-149.863
-155.016
-160.531
-166.575
-173.079
-180.235
-187.928
-196.356
-205.447
-215.258
-226.123
-237.281
-250.658
-262.634
-279.764
-291.36
-312.453
-324.423
-343.383
-363.488
-431.622
-58.0014
-71.184
-74.6456
-75.5352
-76.9048
-78.2356
-79.2649
-80.1351
-80.9615
-81.724
-82.4448
-83.1225
-83.7756
-84.4024
-85.0108
-85.5997
-86.1703
-86.723
-87.2584
-87.778
-88.282
-88.772
-89.2481
-89.711
-90.1605
-90.5976
-91.0224
-91.4359
-91.838
-92.2295
-92.6105
-92.9816
-93.3426
-93.6943
-94.0373
-94.3722
-94.6998
-95.0211
-95.3379
-95.6522
-95.9663
-96.283
-96.6059
-96.94
-97.2908
-97.6652
-98.072
-98.5217
-99.027
-99.6029
-100.267
-101.041
-101.949
-103.019
-104.285
-105.782
-107.559
-109.665
-112.172
-115.151
-118.733
-123.061
-128.312
-133.013
-136.665
-140.614
-145.055
-149.812
-154.963
-160.476
-166.518
-173.017
-180.166
-187.848
-196.261
-205.336
-215.117
-225.97
-237.064
-250.462
-262.288
-279.601
-290.738
-313.11
-322.54
-350.646
-354.947
-452.361
-58.008
-71.17
-74.6411
-75.5337
-76.9044
-78.2355
-79.265
-80.1352
-80.9616
-81.7241
-82.4449
-83.1226
-83.7757
-84.4025
-85.0109
-85.5998
-86.1704
-86.7231
-87.2585
-87.7781
-88.2821
-88.7722
-89.2482
-89.7111
-90.1606
-90.5977
-91.0225
-91.436
-91.8382
-92.2296
-92.6107
-92.9817
-93.3427
-93.6944
-94.0374
-94.3723
-94.6998
-95.0211
-95.3379
-95.6521
-95.9661
-96.2827
-96.6056
-96.9394
-97.29
-97.6643
-98.0709
-98.5203
-99.0253
-99.6008
-100.265
-101.038
-101.945
-103.015
-104.28
-105.776
-107.552
-109.656
-112.162
-115.139
-118.718
-123.034
-128.259
-132.947
-136.61
-140.56
-144.995
-149.747
-154.894
-160.404
-166.441
-172.932
-180.069
-187.735
-196.128
-205.18
-214.924
-225.753
-236.77
-250.179
-261.823
-279.343
-289.905
-313.781
-320.386
-357.327
-348.051
-464.858
-58.0145
-71.1513
-74.6352
-75.5313
-76.9034
-78.2352
-79.2649
-80.1352
-80.9616
-81.7242
-82.445
-83.1227
-83.7758
-84.4025
-85.011
-85.5998
-86.1705
-86.7232
-87.2585
-87.7782
-88.2821
-88.7722
-89.2482
-89.7111
-90.1606
-90.5977
-91.0225
-91.4359
-91.8381
-92.2295
-92.6105
-92.9814
-93.3424
-93.694
-94.0369
-94.3717
-94.6991
-95.0203
-95.3369
-95.651
-95.9648
-96.2812
-96.6038
-96.9375
-97.2879
-97.6619
-98.0682
-98.5174
-99.0221
-99.5973
-100.261
-101.034
-101.94
-103.009
-104.273
-105.769
-107.543
-109.646
-112.149
-115.123
-118.698
-123
-128.193
-132.866
-136.541
-140.49
-144.916
-149.661
-154.803
-160.307
-166.337
-172.815
-179.936
-187.579
-195.944
-204.961
-214.657
-225.445
-236.369
-249.763
-261.203
-278.908
-288.866
-314.195
-318.277
-362.192
-344.392
-468.839
-58.0216
-71.1271
-74.6276
-75.5279
-76.9017
-78.2343
-79.2644
-80.1349
-80.9615
-81.7241
-82.4449
-83.1227
-83.7758
-84.4025
-85.0109
-85.5998
-86.1704
-86.7231
-87.2584
-87.778
-88.2819
-88.772
-89.2479
-89.7108
-90.1602
-90.5972
-91.0219
-91.4353
-91.8373
-92.2287
-92.6095
-92.9804
-93.3413
-93.6928
-94.0356
-94.3703
-94.6976
-95.0187
-95.3352
-95.6492
-95.9629
-96.2792
-96.6017
-96.9352
-97.2854
-97.6591
-98.0652
-98.5141
-99.0184
-99.5932
-100.256
-101.028
-101.934
-103.002
-104.265
-105.759
-107.532
-109.632
-112.133
-115.102
-118.67
-122.955
-128.111
-132.765
-136.45
-140.399
-144.813
-149.549
-154.682
-160.176
-166.193
-172.652
-179.751
-187.36
-195.686
-204.652
-214.285
-225.003
-235.823
-249.143
-260.395
-278.149
-287.673
-313.895
-316.658
-363.976
-344.99
-463.906
-58.03
-71.0972
-74.6171
-75.5233
-76.8993
-78.2329
-79.2635
-80.1343
-80.961
-81.7237
-82.4446
-83.1223
-83.7755
-84.4022
-85.0106
-85.5994
-86.1699
-86.7226
-87.2579
-87.7774
-88.2813
-88.7713
-89.2472
-89.71
-90.1594
-90.5963
-91.021
-91.4343
-91.8363
-92.2275
-92.6084
-92.9792
-93.34
-93.6914
-94.0341
-94.3687
-94.696
-95.017
-95.3334
-95.6472
-95.9608
-96.2769
-96.5992
-96.9324
-97.2823
-97.6558
-98.0615
-98.51
-99.0138
-99.588
-100.25
-101.022
-101.926
-102.993
-104.254
-105.746
-107.517
-109.613
-112.11
-115.073
-118.633
-122.895
-128.008
-132.638
-136.332
-140.278
-144.677
-149.399
-154.518
-159.996
-165.995
-172.426
-179.491
-187.051
-195.324
-204.214
-213.766
-224.369
-235.075
-248.222
-259.348
-276.86
-286.367
-312.368
-315.809
-361.892
-349.344
-451.197
-58.0406
-71.0613
-74.6038
-75.5169
-76.8957
-78.2308
-79.262
-80.1332
-80.9601
-81.723
-82.4439
-83.1217
-83.7748
-84.4016
-85.01
-85.5988
-86.1693
-86.722
-87.2572
-87.7767
-88.2806
-88.7705
-89.2464
-89.7092
-90.1585
-90.5954
-91.02
-91.4332
-91.8351
-92.2263
-92.607
-92.9777
-93.3384
-93.6898
-94.0324
-94.3669
-94.694
-95.0149
-95.3312
-95.6448
-95.9582
-96.2741
-96.5961
-96.9291
-97.2786
-97.6517
-98.0569
-98.5048
-99.008
-99.5814
-100.243
-101.013
-101.916
-102.981
-104.24
-105.729
-107.496
-109.588
-112.079
-115.034
-118.581
-122.816
-127.877
-132.477
-136.177
-140.117
-144.496
-149.198
-154.296
-159.75
-165.719
-172.109
-179.125
-186.616
-194.813
-203.592
-213.04
-223.459
-234.05
-246.859
-257.981
-274.791
-284.874
-309.202
-315.408
-356.009
-354.676
-433.116
-58.0534
-71.0183
-74.5878
-75.5089
-76.8912
-78.228
-79.2601
-80.1318
-80.959
-81.7221
-82.4431
-83.1209
-83.7741
-84.4009
-85.0093
-85.5981
-86.1686
-86.7212
-87.2564
-87.7759
-88.2797
-88.7696
-89.2454
-89.7081
-90.1574
-90.5942
-91.0188
-91.432
-91.8338
-92.2248
-92.6054
-92.976
-93.3366
-93.6879
-94.0304
-94.3647
-94.6917
-95.0124
-95.3285
-95.642
-95.9551
-96.2707
-96.5924
-96.925
-97.2741
-97.6466
-98.0512
-98.4984
-99.0006
-99.573
-100.233
-101.001
-101.903
-102.965
-104.221
-105.706
-107.468
-109.554
-112.036
-114.98
-118.509
-122.711
-127.71
-132.271
-135.972
-139.902
-144.253
-148.925
-153.992
-159.409
-165.333
-171.662
-178.608
-185.999
-194.091
-202.709
-212.019
-222.159
-232.625
-244.888
-256.117
-271.714
-282.839
-304.24
-314.301
-347.008
-356.811
-411.786
-58.0686
-70.9672
-74.5688
-75.4995
-76.8857
-78.2246
-79.2577
-80.13
-80.9577
-81.721
-82.4421
-83.12
-83.7733
-84.4
-85.0085
-85.5973
-86.1678
-86.7204
-87.2555
-87.7749
-88.2787
-88.7685
-89.2443
-89.7069
-90.1561
-90.5929
-91.0174
-91.4304
-91.8321
-92.2231
-92.6036
-92.974
-93.3345
-93.6856
-94.0279
-94.3621
-94.6889
-95.0095
-95.3254
-95.6386
-95.9514
-96.2666
-96.5879
-96.92
-97.2685
-97.6403
-98.0441
-98.4902
-98.9913
-99.5621
-100.22
-100.987
-101.885
-102.944
-104.195
-105.675
-107.43
-109.507
-111.977
-114.905
-118.409
-122.568
-127.495
-132.006
-135.699
-139.61
-143.923
-148.553
-153.574
-158.934
-164.792
-171.033
-177.876
-185.125
-193.069
-201.458
-210.577
-220.321
-230.615
-242.117
-253.436
-267.444
-279.566
-297.505
-310.734
-335.534
-352.078
-388.174
-58.0867
-70.9066
-74.5461
-75.4882
-76.8791
-78.2205
-79.2549
-80.128
-80.9561
-81.7197
-82.441
-83.1189
-83.7722
-84.3991
-85.0075
-85.5963
-86.1668
-86.7193
-87.2544
-87.7738
-88.2775
-88.7672
-89.2429
-89.7055
-90.1546
-90.5913
-91.0157
-91.4286
-91.8302
-92.221
-92.6013
-92.9716
-93.3319
-93.6828
-94.025
-94.359
-94.6856
-95.0059
-95.3215
-95.6344
-95.9469
-96.2617
-96.5824
-96.9138
-97.2615
-97.6324
-98.0351
-98.4799
-98.9793
-99.5481
-100.204
-100.967
-101.861
-102.915
-104.16
-105.632
-107.377
-109.441
-111.895
-114.8
-118.271
-122.375
-127.214
-131.661
-135.333
-139.213
-143.472
-148.042
-152.995
-158.273
-164.032
-170.147
-176.841
-183.892
-191.621
-199.699
-208.533
-217.761
-227.742
-238.329
-249.468
-261.771
-274.18
-288.867
-303.15
-321.487
-339.06
-361.933
-58.1081
-70.8351
-74.5191
-75.4748
-76.8713
-78.2157
-79.2515
-80.1255
-80.9543
-81.7182
-82.4396
-83.1177
-83.771
-84.3979
-85.0064
-85.5952
-86.1656
-86.7181
-87.2531
-87.7724
-88.276
-88.7657
-89.2413
-89.7038
-90.1528
-90.5894
-91.0136
-91.4264
-91.8278
-92.2185
-92.5986
-92.9687
-93.3288
-93.6796
-94.0215
-94.3553
-94.6816
-95.0017
-95.317
-95.6295
-95.9414
-96.2556
-96.5757
-96.9062
-97.2529
-97.6225
-98.0236
-98.4666
-98.9637
-99.5296
-100.182
-100.94
-101.829
-102.876
-104.112
-105.573
-107.304
-109.349
-111.78
-114.652
-118.077
-122.111
-126.844
-131.208
-134.84
-138.67
-142.855
-147.338
-152.19
-157.349
-162.964
-168.899
-175.379
-182.159
-189.577
-197.242
-205.645
-214.235
-223.655
-233.224
-243.688
-254.327
-265.926
-277.815
-290.799
-304.152
-318.615
-332.534
-58.1334
-70.7513
-74.4873
-75.4591
-76.8621
-78.2099
-79.2475
-80.1225
-80.9521
-81.7164
-82.438
-83.1162
-83.7696
-84.3965
-85.005
-85.5938
-86.1642
-86.7167
-87.2516
-87.7708
-88.2743
-88.764
-89.2394
-89.7018
-90.1507
-90.5871
-91.0112
-91.4239
-91.8251
-92.2156
-92.5955
-92.9654
-93.3252
-93.6757
-94.0174
-94.3509
-94.6769
-94.9966
-95.3115
-95.6235
-95.9348
-96.2483
-96.5674
-96.8968
-97.2421
-97.6101
-98.0091
-98.4494
-98.9433
-99.5052
-100.152
-100.905
-101.786
-102.822
-104.046
-105.49
-107.201
-109.221
-111.618
-114.445
-117.806
-121.749
-126.352
-130.607
-134.172
-137.925
-142.004
-146.364
-151.071
-156.058
-161.464
-167.15
-173.323
-179.738
-186.709
-193.845
-201.611
-209.43
-217.955
-226.397
-235.61
-244.571
-254.356
-263.665
-273.79
-283.002
-292.745
-300.337
-58.1632
-70.6536
-74.45
-75.4407
-76.8512
-78.2031
-79.2428
-80.119
-80.9495
-81.7143
-82.4361
-83.1144
-83.7679
-84.3949
-85.0034
-85.5922
-86.1626
-86.715
-87.2498
-87.7689
-88.2723
-88.7619
-89.2372
-89.6995
-90.1482
-90.5845
-91.0084
-91.4209
-91.8219
-92.2121
-92.5918
-92.9614
-93.321
-93.6712
-94.0126
-94.3457
-94.6714
-94.9906
-95.305
-95.6163
-95.9269
-96.2393
-96.5573
-96.8852
-97.2286
-97.5942
-97.9903
-98.4271
-98.9164
-99.4727
-100.113
-100.856
-101.726
-102.748
-103.954
-105.376
-107.058
-109.041
-111.39
-114.154
-117.427
-121.25
-125.692
-129.802
-133.263
-136.9
-140.83
-145.015
-149.515
-154.262
-159.372
-164.715
-170.46
-176.388
-182.744
-189.197
-196.09
-202.958
-210.257
-217.375
-224.875
-231.984
-239.367
-246.055
-252.811
-258.362
-263.613
-266.664
-58.1981
-70.5411
-74.4066
-75.4194
-76.8384
-78.1952
-79.2372
-80.1149
-80.9464
-81.7118
-82.4339
-83.1123
-83.7659
-84.393
-85.0016
-85.5904
-86.1607
-86.713
-87.2477
-87.7667
-88.27
-88.7594
-89.2347
-89.6967
-90.1453
-90.5814
-91.0052
-91.4174
-91.8182
-92.2081
-92.5875
-92.9568
-93.316
-93.6659
-94.0069
-94.3396
-94.6648
-94.9835
-95.2972
-95.6077
-95.9172
-96.2284
-96.5448
-96.8707
-97.2115
-97.574
-97.9661
-98.3978
-98.8808
-99.4291
-100.059
-100.79
-101.644
-102.646
-103.826
-105.216
-106.857
-108.788
-111.069
-113.745
-116.898
-120.564
-124.799
-128.718
-132.025
-135.492
-139.213
-143.155
-147.364
-151.778
-156.48
-161.361
-166.529
-171.817
-177.367
-182.947
-188.733
-194.425
-200.231
-205.783
-211.309
-216.366
-221.206
-225.285
-228.915
-231.376
-233.156
-233.148
-58.2387
-70.413
-74.3566
-75.395
-76.8235
-78.1861
-79.2308
-80.1102
-80.9429
-81.709
-82.4314
-83.11
-83.7637
-84.3908
-84.9995
-85.5883
-86.1585
-86.7107
-87.2453
-87.7642
-88.2674
-88.7566
-89.2317
-89.6936
-90.142
-90.5779
-91.0014
-91.4134
-91.8139
-92.2035
-92.5825
-92.9514
-93.3103
-93.6598
-94.0003
-94.3326
-94.6572
-94.9752
-95.288
-95.5975
-95.9057
-96.2152
-96.5293
-96.8525
-97.1899
-97.5479
-97.9345
-98.3592
-98.8333
-99.3703
-99.986
-100.699
-101.53
-102.503
-103.647
-104.992
-106.575
-108.432
-110.618
-113.171
-116.162
-119.62
-123.587
-127.251
-130.34
-133.566
-136.997
-140.606
-144.42
-148.384
-152.543
-156.813
-161.24
-165.709
-170.266
-174.765
-179.252
-183.554
-187.71
-191.525
-195.034
-198.011
-200.513
-202.265
-203.397
-203.542
-203.007
-201.19
-58.2853
-70.2695
-74.2997
-75.3674
-76.8066
-78.1756
-79.2236
-80.1048
-80.9389
-81.7058
-82.4286
-83.1073
-83.7611
-84.3884
-84.997
-85.5859
-86.1561
-86.7082
-87.2426
-87.7613
-88.2643
-88.7535
-89.2283
-89.69
-90.1382
-90.5739
-90.9971
-91.4088
-91.809
-92.1982
-92.5769
-92.9454
-93.3038
-93.6528
-93.9928
-94.3244
-94.6483
-94.9655
-95.2773
-95.5853
-95.8917
-96.199
-96.5103
-96.8297
-97.1624
-97.5144
-97.8932
-98.308
-98.7695
-99.2906
-99.8861
-100.573
-101.372
-102.305
-103.398
-104.677
-106.179
-107.933
-109.986
-112.371
-115.143
-118.325
-121.944
-125.268
-128.056
-130.95
-133.991
-137.156
-140.448
-143.824
-147.291
-150.789
-154.312
-157.785
-161.192
-164.445
-167.519
-170.317
-172.811
-174.899
-176.56
-177.686
-178.287
-178.24
-177.628
-176.286
-174.434
-171.76
-58.3378
-70.1125
-74.2363
-75.3368
-76.7875
-78.164
-79.2154
-80.0987
-80.9344
-81.7022
-82.4254
-83.1043
-83.7582
-84.3856
-84.9943
-85.5832
-86.1533
-86.7053
-87.2395
-87.7582
-88.261
-88.7499
-89.2246
-89.6861
-90.134
-90.5694
-90.9924
-91.4037
-91.8035
-92.1924
-92.5706
-92.9386
-93.2965
-93.645
-93.9843
-94.3152
-94.6382
-94.9543
-95.2647
-95.571
-95.8751
-96.1793
-96.4868
-96.8012
-97.1273
-97.4708
-97.8389
-98.2399
-98.6838
-99.1824
-99.7494
-100.401
-101.154
-102.03
-103.05
-104.239
-105.626
-107.238
-109.109
-111.265
-113.744
-116.563
-119.729
-122.609
-124.999
-127.453
-129.987
-132.581
-135.218
-137.862
-140.496
-143.073
-145.564
-147.914
-150.087
-152.026
-153.693
-155.033
-156.015
-156.59
-156.745
-156.437
-155.685
-154.45
-152.805
-150.691
-148.266
-145.377
-58.3956
-69.9461
-74.1676
-75.304
-76.7667
-78.1512
-79.2066
-80.092
-80.9295
-81.6983
-82.422
-83.101
-83.7551
-84.3826
-84.9914
-85.5803
-86.1503
-86.7023
-87.2362
-87.7547
-88.2573
-88.7461
-89.2205
-89.6818
-90.1294
-90.5646
-90.9872
-91.3982
-91.7976
-92.1861
-92.5638
-92.9312
-93.2886
-93.6364
-93.975
-94.305
-94.6269
-94.9417
-95.2503
-95.5543
-95.8554
-96.1556
-96.4578
-96.7653
-97.0825
-97.4144
-97.7675
-98.1492
-98.5684
-99.0356
-99.5627
-100.164
-100.853
-101.649
-102.569
-103.633
-104.863
-106.278
-107.903
-109.753
-111.849
-114.195
-116.781
-119.09
-120.973
-122.869
-124.776
-126.671
-128.531
-130.323
-132.021
-133.587
-134.99
-136.192
-137.162
-137.865
-138.278
-138.375
-138.143
-137.57
-136.661
-135.414
-133.857
-131.995
-129.889
-127.531
-125.028
-122.307
-58.4566
-69.7782
-74.0966
-75.2702
-76.745
-78.1379
-79.1974
-80.085
-80.9244
-81.6942
-82.4184
-83.0976
-83.7518
-84.3796
-84.9884
-85.5774
-86.1472
-86.6991
-87.2328
-87.7512
-88.2535
-88.7422
-89.2163
-89.6774
-90.1247
-90.5596
-90.9819
-91.3925
-91.7914
-92.1795
-92.5566
-92.9235
-93.2803
-93.6274
-93.9651
-94.2941
-94.6147
-94.9277
-95.2342
-95.5352
-95.8322
-96.1272
-96.4223
-96.7205
-97.0255
-97.3415
-97.6739
-98.029
-98.4141
-98.8378
-99.3098
-99.8408
-100.443
-101.129
-101.912
-102.806
-103.823
-104.977
-106.277
-107.729
-109.334
-111.084
-112.952
-114.564
-115.837
-117.072
-118.253
-119.358
-120.364
-121.246
-121.979
-122.539
-122.903
-123.05
-122.965
-122.635
-122.054
-121.22
-120.138
-118.818
-117.277
-115.532
-113.615
-111.546
-109.369
-107.098
-104.795
-102.431
-58.5167
-69.6225
-74.0287
-75.2378
-76.7239
-78.1248
-79.1884
-80.0781
-80.9194
-81.6901
-82.4149
-83.0944
-83.7487
-84.3766
-84.9854
-85.5745
-86.1442
-86.6961
-87.2295
-87.7479
-88.2499
-88.7385
-89.2122
-89.6732
-90.1202
-90.5549
-90.9767
-91.3871
-91.7855
-92.1732
-92.5498
-92.9161
-93.2722
-93.6185
-93.9553
-94.283
-94.602
-94.913
-95.2166
-95.5138
-95.8057
-96.0937
-96.3794
-96.6653
-96.9538
-97.2483
-97.5526
-97.8715
-98.2101
-98.5745
-98.9714
-99.4079
-99.8916
-100.43
-101.03
-101.698
-102.438
-103.252
-104.138
-105.088
-106.088
-107.115
-108.129
-108.929
-109.513
-110.019
-110.423
-110.708
-110.861
-110.867
-110.711
-110.383
-109.874
-109.179
-108.298
-107.234
-105.995
-104.591
-103.037
-101.352
-99.5545
-97.6676
-95.7163
-93.7222
-91.7146
-89.7094
-87.7396
-85.7953
-58.5625
-69.5148
-73.9796
-75.214
-76.7081
-78.1149
-79.1817
-80.0728
-80.9156
-81.6871
-82.4123
-83.0919
-83.7463
-84.3744
-84.9832
-85.5725
-86.142
-86.694
-87.2271
-87.7455
-88.2472
-88.7358
-89.2092
-89.6702
-90.1168
-90.5515
-90.973
-91.3832
-91.7812
-92.1686
-92.5447
-92.9106
-93.266
-93.6117
-93.9475
-94.2741
-94.5915
-94.9002
-95.2008
-95.4937
-95.7798
-96.0598
-96.3349
-96.6063
-96.8757
-97.145
-97.4166
-97.6929
-97.9771
-98.2722
-98.5815
-98.9083
-99.2554
-99.6248
-100.017
-100.432
-100.864
-101.308
-101.75
-102.174
-102.554
-102.858
-103.043
-103.084
-103.045
-102.911
-102.653
-102.265
-101.742
-101.08
-100.275
-99.3259
-98.235
-97.0078
-95.6524
-94.1802
-92.6047
-90.9418
-89.2077
-87.4209
-85.5996
-83.7631
-81.9301
-80.1181
-78.3451
-76.6241
-74.972
-73.3848
-58.5894
-69.4635
-73.9541
-75.2008
-76.6993
-78.1092
-79.1778
-80.0697
-80.9134
-81.6852
-82.4108
-83.0906
-83.745
-84.3733
-84.9819
-85.5715
-86.1408
-86.693
-87.2257
-87.7443
-88.2457
-88.7345
-89.2076
-89.6687
-90.115
-90.5498
-90.9709
-91.3811
-91.7788
-92.1661
-92.5418
-92.9075
-93.2624
-93.6076
-93.9426
-94.2681
-94.584
-94.8907
-95.1883
-95.4772
-95.7575
-96.0296
-96.2939
-96.5508
-96.8009
-97.0447
-97.2828
-97.5161
-97.745
-97.9699
-98.1909
-98.4076
-98.6184
-98.8206
-99.0096
-99.1785
-99.3169
-99.4114
-99.4425
-99.3875
-99.2134
-98.8871
-98.3687
-97.7827
-97.2438
-96.6091
-95.8471
-94.9608
-93.9558
-92.8339
-91.5984
-90.256
-88.8152
-87.2867
-85.6826
-84.0173
-82.3055
-80.5629
-78.8044
-77.0458
-75.3016
-73.5867
-71.9142
-70.2968
-68.7456
-67.2696
-65.8774
-64.5658
-58.5982
-69.466
-73.9511
-75.1976
-76.6972
-78.1074
-79.1766
-80.0686
-80.9127
-81.6846
-82.4103
-83.0902
-83.7446
-84.3731
-84.9816
-85.5714
-86.1404
-86.6929
-87.2253
-87.7443
-88.2452
-88.7345
-89.2071
-89.6686
-90.1146
-90.5497
-90.9704
-91.3809
-91.7783
-92.1657
-92.541
-92.9067
-93.2611
-93.606
-93.9403
-94.2651
-94.5796
-94.8845
-95.1792
-95.4642
-95.7389
-96.0033
-96.2569
-96.4994
-96.7301
-96.9483
-97.1531
-97.3431
-97.5168
-97.6717
-97.8051
-97.9129
-97.99
-98.0293
-98.022
-97.9565
-97.8178
-97.5881
-97.2433
-96.758
-96.0966
-95.2279
-94.1181
-93.0219
-92.0893
-91.0711
-89.9337
-88.6875
-87.3456
-85.9146
-84.4022
-82.8191
-81.1767
-79.4879
-77.7659
-76.0249
-74.279
-72.5417
-70.8256
-69.1432
-67.5054
-65.9232
-64.4055
-62.9612
-61.5969
-60.3186
-59.1302
-58.0281
-58.5891
-69.522
-73.9708
-75.2045
-76.7018
-78.1096
-79.1782
-80.0695
-80.9135
-81.6851
-82.4109
-83.0908
-83.7451
-84.3738
-84.982
-85.5723
-86.1409
-86.6939
-87.2259
-87.7453
-88.2458
-88.7356
-89.2079
-89.67
-90.1155
-90.5511
-90.9715
-91.3825
-91.7795
-92.1674
-92.5423
-92.9083
-93.2622
-93.6072
-93.9407
-94.2651
-94.5782
-94.8817
-95.1737
-95.4552
-95.7245
-95.9818
-96.2252
-96.454
-96.6661
-96.8598
-97.0324
-97.1809
-97.3015
-97.3894
-97.4392
-97.4437
-97.3947
-97.2819
-97.0929
-96.813
-96.4239
-95.9055
-95.2313
-94.3756
-93.3027
-91.9854
-90.3978
-88.9003
-87.6651
-86.3581
-84.9438
-83.4391
-81.8623
-80.2231
-78.5319
-76.8013
-75.0442
-73.2736
-71.5027
-69.7445
-68.0111
-66.314
-64.6631
-63.0678
-61.5363
-60.0761
-58.6936
-57.3943
-56.1821
-55.0605
-54.0309
-53.0888
-58.5621
-69.6329
-74.013
-75.2216
-76.713
-78.1157
-79.1824
-80.0726
-80.9158
-81.6868
-82.4124
-83.0924
-83.7466
-84.3756
-84.9834
-85.5742
-86.1423
-86.696
-87.2274
-87.7476
-88.2475
-88.7381
-89.2099
-89.6728
-90.1178
-90.5543
-90.9741
-91.386
-91.7825
-92.1713
-92.5457
-92.9124
-93.2656
-93.6111
-93.9439
-94.2683
-94.5801
-94.8826
-95.1721
-95.4507
-95.7151
-95.966
-96.1999
-96.4161
-96.6108
-96.7819
-96.9244
-97.0344
-97.1056
-97.1314
-97.1038
-97.0134
-96.8493
-96.5985
-96.2464
-95.7762
-95.1677
-94.4002
-93.4464
-92.2819
-90.8723
-89.1952
-87.2313
-85.4251
-83.9637
-82.4454
-80.833
-79.1484
-77.4136
-75.6402
-73.8396
-72.0251
-70.2099
-68.4064
-66.6265
-64.8817
-63.1822
-61.5372
-59.9547
-58.4416
-57.0038
-55.6466
-54.3743
-53.19
-52.0963
-51.0945
-50.1849
-49.3617
-58.5212
-69.7871
-74.0725
-75.2469
-76.7294
-78.125
-79.1888
-80.0772
-80.9192
-81.6895
-82.4148
-83.0949
-83.7488
-84.3781
-84.9855
-85.5768
-86.1444
-86.6989
-87.2297
-87.7508
-88.2501
-88.7417
-89.2128
-89.6768
-90.1212
-90.5588
-90.978
-91.391
-91.7869
-92.1769
-92.5506
-92.9184
-93.271
-93.6174
-93.9494
-94.2744
-94.5849
-94.8872
-95.1744
-95.4514
-95.7115
-95.9579
-96.1838
-96.3905
-96.5709
-96.7239
-96.8418
-96.9208
-96.9518
-96.9277
-96.8377
-96.6713
-96.4153
-96.0557
-95.5759
-94.9585
-94.1829
-93.2286
-92.0695
-90.6827
-89.0362
-87.1108
-84.8914
-82.8791
-81.2682
-79.6113
-77.8704
-76.071
-74.2377
-72.3828