/*--------------------------------*- C++ -*----------------------------------*\
| =========                 |                                                 |
| \\      /  F ield         | OpenFOAM: The Open Source CFD Toolbox           |
|  \\    /   O peration     | Version:  5.x                                   |
|   \\  /    A nd           | Web:      www.OpenFOAM.org                      |
|    \\/     M anipulation  |                                                 |
\*---------------------------------------------------------------------------*/
FoamFile
{
    version     2.0;
    format      ascii;
    class       surfaceScalarField;
    location    "50";
    object      phi;
}
// * * * * * * * * * * * * * * * * * * * * * * * * * * * * * * * * * * * * * //

dimensions      [0 3 -1 0 0 0 0];

internalField   nonuniform List<scalar> 
40747
(
1.82881e-05
-1.79165e-06
8.33961e-06
9.94852e-06
2.22766e-05
-4.11203e-06
1.64217e-05
1.41945e-05
2.71422e-05
-7.1126e-06
2.40704e-05
1.94936e-05
3.30377e-05
-1.09455e-05
3.15293e-05
2.55788e-05
4.01149e-05
-1.57306e-05
3.89481e-05
3.26961e-05
4.84944e-05
-2.14855e-05
4.62536e-05
4.11888e-05
5.82496e-05
-2.8032e-05
5.31729e-05
5.13303e-05
6.94943e-05
-3.49796e-05
5.92772e-05
6.339e-05
8.25147e-05
-4.18299e-05
6.40737e-05
7.77183e-05
9.77738e-05
-4.80703e-05
6.71031e-05
9.47444e-05
0.000115825
-5.31649e-05
6.80094e-05
0.000114919
0.000137334
-5.65451e-05
6.66773e-05
0.000138666
0.000163261
-5.77583e-05
6.36097e-05
0.000166328
0.000195193
-5.69183e-05
6.0452e-05
0.000198351
0.000235444
-5.52155e-05
5.86829e-05
0.000237213
0.000285717
-5.40498e-05
5.80333e-05
0.000286367
0.000346292
-5.32913e-05
5.74418e-05
0.000346884
0.000418979
-5.24337e-05
5.65775e-05
0.000419843
0.000506813
-5.13596e-05
5.54847e-05
0.000507907
0.000613097
-5.00511e-05
5.41563e-05
0.000614426
0.000741684
-4.84718e-05
5.25485e-05
0.000743293
0.000897249
-4.65754e-05
5.06099e-05
0.00089919
0.00108546
-4.43104e-05
4.82825e-05
0.00108779
0.00131316
-4.16201e-05
4.54996e-05
0.00131594
0.00158864
-3.84426e-05
4.21851e-05
0.00159196
0.00192193
-3.47109e-05
3.8252e-05
0.00192587
0.00232517
-3.03527e-05
3.36006e-05
0.00232983
0.00281303
-2.52873e-05
2.81133e-05
0.00281852
0.00340326
-1.94175e-05
2.16463e-05
0.00340973
0.00411731
-1.26127e-05
1.4015e-05
0.00412495
0.00394528
-6.29555e-06
6.83049e-06
0.00395248
0.00394539
-8.1737e-08
-2.93556e-07
0.00395252
0.00394539
6.12517e-06
-7.42589e-06
0.00395253
0.00394531
1.24212e-05
-1.46346e-05
0.00395252
0.00399244
1.89804e-05
-2.2074e-05
0.00399989
0.00332108
2.4655e-05
-2.84248e-05
0.00332743
0.00276259
2.95693e-05
-3.3851e-05
0.00276803
0.00229803
3.38155e-05
-3.84817e-05
0.00230267
0.0019116
3.74688e-05
-4.24231e-05
0.00191555
0.00159016
4.05964e-05
-4.57671e-05
0.00159351
0.00132279
4.32601e-05
-4.8594e-05
0.00132562
0.00110038
4.55168e-05
-5.09747e-05
0.00110276
0.000915375
4.74189e-05
-5.29718e-05
0.000917376
0.000761484
4.90138e-05
-5.46402e-05
0.000763155
0.000633471
5.03447e-05
-5.60284e-05
0.000634861
0.000526984
5.14493e-05
-5.71799e-05
0.000528137
0.000438413
5.23502e-05
-5.81239e-05
0.000439359
0.000364739
5.30751e-05
-5.88342e-05
0.00036545
0.000303237
5.38652e-05
-5.93401e-05
0.000303744
0.000251599
5.51852e-05
-6.02156e-05
0.000252475
0.000208964
5.66234e-05
-6.23424e-05
0.000211092
0.000174873
5.67826e-05
-6.54374e-05
0.000177969
0.000147497
5.48948e-05
-6.79223e-05
0.000149982
0.00012498
5.1046e-05
-6.85267e-05
0.000125585
0.000106108
4.5707e-05
-6.69905e-05
0.000104572
9.01265e-05
3.94094e-05
-6.35008e-05
8.66369e-05
7.6482e-05
3.26643e-05
-5.8425e-05
7.14062e-05
6.47041e-05
2.5974e-05
-5.22138e-05
5.8493e-05
5.44356e-05
1.97998e-05
-4.53264e-05
4.75482e-05
4.5492e-05
1.44563e-05
-3.81352e-05
3.83008e-05
3.78052e-05
1.00505e-05
-3.08585e-05
3.05285e-05
3.13022e-05
6.53293e-06
-2.35357e-05
2.39794e-05
2.58664e-05
3.78052e-06
-1.60153e-05
1.83461e-05
2.13594e-05
1.64949e-06
-8.10437e-06
1.34485e-05
1.76455e-05
9.54115e-06
1.38957e-06
8.55894e-06
1.12984e-06
2.59732e-07
1.08422e-06
4.56274e-08
1.0687e-06
1.55177e-08
1.06307e-06
5.62673e-09
1.06114e-06
1.92996e-09
1.06107e-06
7.54502e-11
1.06209e-06
-1.01839e-09
1.06372e-06
-1.63306e-09
1.0657e-06
-1.97791e-09
1.06789e-06
-2.1939e-09
1.07023e-06
-2.33781e-09
1.07266e-06
-2.42768e-09
1.07513e-06
-2.47923e-09
1.07765e-06
-2.51337e-09
1.08019e-06
-2.54554e-09
1.08277e-06
-2.5807e-09
1.08541e-06
-2.63237e-09
1.08811e-06
-2.70726e-09
1.0909e-06
-2.78646e-09
1.09374e-06
-2.84497e-09
1.09663e-06
-2.88747e-09
1.09956e-06
-2.92811e-09
1.10252e-06
-2.96593e-09
1.10551e-06
-2.99067e-09
1.10851e-06
-3.0023e-09
1.11152e-06
-3.01278e-09
1.11456e-06
-3.03823e-09
1.11763e-06
-3.07584e-09
1.12075e-06
-3.12005e-09
1.12393e-06
-3.18128e-09
1.12719e-06
-3.26136e-09
1.13053e-06
-3.34042e-09
1.13393e-06
-3.40904e-09
1.1374e-06
-3.47184e-09
1.14093e-06
-3.52793e-09
1.1445e-06
-3.57272e-09
1.1481e-06
-3.60169e-09
1.15171e-06
-3.61774e-09
1.15535e-06
-3.64142e-09
1.15904e-06
-3.68862e-09
1.16278e-06
-3.75226e-09
1.1666e-06
-3.82439e-09
1.17052e-06
-3.92064e-09
1.17457e-06
-4.05459e-09
1.17878e-06
-4.21796e-09
1.18317e-06
-4.40067e-09
1.18777e-06
-4.60116e-09
1.19258e-06
-4.82134e-09
1.19763e-06
-5.06685e-09
1.20296e-06
-5.3345e-09
1.20858e-06
-5.63787e-09
1.21458e-06
-6.01594e-09
1.22107e-06
-6.50492e-09
1.22814e-06
-7.09119e-09
1.23592e-06
-7.78681e-09
1.24453e-06
-8.63925e-09
1.25417e-06
-9.66064e-09
1.26515e-06
-1.10346e-08
1.27759e-06
-1.24626e-08
1.29219e-06
-1.46742e-08
1.30972e-06
-1.7557e-08
1.3267e-06
-1.70875e-08
1.33669e-06
-1.00089e-08
1.34863e-06
-1.21058e-08
1.36474e-06
-1.61155e-08
1.38568e-06
-2.11048e-08
1.41132e-06
-2.56375e-08
1.44128e-06
-3.01432e-08
1.47414e-06
-3.28725e-08
1.50984e-06
-3.59148e-08
1.54691e-06
-3.71045e-08
1.58694e-06
-4.02911e-08
1.62812e-06
-4.12606e-08
1.67388e-06
-4.60895e-08
1.72135e-06
-4.76098e-08
1.7755e-06
-5.45463e-08
1.8333e-06
-5.81101e-08
1.8981e-06
-6.54057e-08
1.97441e-06
-7.70618e-08
2.04906e-06
-7.57576e-08
2.15719e-06
-1.09555e-07
2.2422e-06
-8.65999e-08
2.36521e-06
-1.24874e-07
2.48558e-06
-1.21741e-07
2.41534e-06
6.85426e-08
-6.51725e-07
3.06614e-06
-6.42223e-06
5.76951e-06
5.17562e-06
1.75778e-05
4.33173e-06
1.10362e-06
4.1546e-06
2.22753e-07
4.09331e-06
7.68152e-08
4.07037e-06
2.85601e-08
4.06209e-06
1.02135e-08
4.06112e-06
1.04869e-09
4.06444e-06
-4.34151e-09
4.07021e-06
-7.39922e-09
4.07735e-06
-9.1229e-09
4.08536e-06
-1.02015e-08
4.09394e-06
-1.09159e-08
4.10288e-06
-1.1365e-08
4.11202e-06
-1.16199e-08
4.12129e-06
-1.1789e-08
4.13069e-06
-1.1942e-08
4.14022e-06
-1.21101e-08
4.14993e-06
-1.23487e-08
4.15992e-06
-1.26963e-08
4.17019e-06
-1.30618e-08
4.18068e-06
-1.33333e-08
4.19132e-06
-1.35273e-08
4.2021e-06
-1.37146e-08
4.21302e-06
-1.38885e-08
4.22403e-06
-1.40026e-08
4.23508e-06
-1.40531e-08
4.24616e-06
-1.40966e-08
4.25733e-06
-1.42077e-08
4.26862e-06
-1.43771e-08
4.28008e-06
-1.45774e-08
4.29175e-06
-1.48553e-08
4.3037e-06
-1.52183e-08
4.31593e-06
-1.55779e-08
4.32841e-06
-1.58904e-08
4.34111e-06
-1.61772e-08
4.35401e-06
-1.64332e-08
4.36707e-06
-1.66366e-08
4.38023e-06
-1.67662e-08
4.39344e-06
-1.68341e-08
4.40673e-06
-1.69329e-08
4.42017e-06
-1.71381e-08
4.43383e-06
-1.74212e-08
4.44774e-06
-1.77428e-08
4.46197e-06
-1.81682e-08
4.47667e-06
-1.87606e-08
4.49193e-06
-1.94874e-08
4.50782e-06
-2.03025e-08
4.5244e-06
-2.11957e-08
4.54173e-06
-2.21727e-08
4.5599e-06
-2.32582e-08
4.57898e-06
-2.44361e-08
4.59908e-06
-2.57636e-08
4.62045e-06
-2.7412e-08
4.64347e-06
-2.95521e-08
4.66846e-06
-3.21172e-08
4.69581e-06
-3.51634e-08
4.72598e-06
-3.88661e-08
4.75959e-06
-4.33042e-08
4.79772e-06
-4.92591e-08
4.84058e-06
-5.53709e-08
4.89052e-06
-6.47422e-08
4.95081e-06
-7.79134e-08
5.01023e-06
-7.6689e-08
5.04477e-06
-4.45881e-08
5.084e-06
-5.16074e-08
5.13622e-06
-6.83507e-08
5.20535e-06
-9.0514e-08
5.29096e-06
-1.11249e-07
5.3919e-06
-1.31394e-07
5.50275e-06
-1.4373e-07
5.62324e-06
-1.56763e-07
5.74758e-06
-1.61499e-07
5.88117e-06
-1.74314e-07
6.01729e-06
-1.77509e-07
6.1672e-06
-1.9652e-07
6.32162e-06
-2.02256e-07
6.49473e-06
-2.28265e-07
6.68086e-06
-2.44733e-07
6.88094e-06
-2.66416e-07
7.12703e-06
-3.24313e-07
7.34661e-06
-2.96969e-07
7.69491e-06
-4.59894e-07
7.95094e-06
-3.44834e-07
8.31633e-06
-4.92764e-07
8.8288e-06
-6.35933e-07
8.82802e-06
6.717e-08
4.29407e-06
7.59888e-06
-1.53891e-05
1.32599e-05
1.01499e-05
2.69215e-05
8.76099e-06
2.49249e-06
8.44309e-06
5.40653e-07
8.33092e-06
1.88985e-07
8.2876e-06
7.18755e-08
8.27124e-06
2.65805e-08
8.26839e-06
3.8987e-09
8.27351e-06
-9.4588e-09
8.2832e-06
-1.7093e-08
8.2955e-06
-2.14234e-08
8.30943e-06
-2.41307e-08
8.32444e-06
-2.59232e-08
8.34013e-06
-2.70543e-08
8.35621e-06
-2.77007e-08
8.37254e-06
-2.81266e-08
8.3891e-06
-2.85031e-08
8.4059e-06
-2.89093e-08
8.42303e-06
-2.9472e-08
8.44062e-06
-3.02858e-08
8.45869e-06
-3.11422e-08
8.47714e-06
-3.17812e-08
8.49585e-06
-3.22355e-08
8.5148e-06
-3.26744e-08
8.534e-06
-3.3084e-08
8.55335e-06
-3.33562e-08
8.57277e-06
-3.34777e-08
8.59225e-06
-3.35787e-08
8.61187e-06
-3.3833e-08
8.63171e-06
-3.42257e-08
8.65182e-06
-3.46925e-08
8.6723e-06
-3.53362e-08
8.69325e-06
-3.61753e-08
8.71468e-06
-3.70094e-08
8.73652e-06
-3.77376e-08
8.75875e-06
-3.8408e-08
8.78132e-06
-3.9009e-08
8.80417e-06
-3.94905e-08
8.8272e-06
-3.98035e-08
8.85033e-06
-3.99721e-08
8.87359e-06
-4.02043e-08
8.89712e-06
-4.06771e-08
8.92103e-06
-4.13351e-08
8.94536e-06
-4.20865e-08
8.97025e-06
-4.30686e-08
8.9959e-06
-4.44266e-08
9.0225e-06
-4.60961e-08
9.05015e-06
-4.7974e-08
9.07897e-06
-5.00338e-08
9.10907e-06
-5.2285e-08
9.14057e-06
-5.47835e-08
9.17361e-06
-5.74947e-08
9.20835e-06
-6.0539e-08
9.2452e-06
-6.42918e-08
9.28477e-06
-6.91538e-08
9.3276e-06
-7.49812e-08
9.3743e-06
-8.19e-08
9.42564e-06
-9.02702e-08
9.48255e-06
-1.00257e-07
9.54687e-06
-1.13669e-07
9.61876e-06
-1.27319e-07
9.70196e-06
-1.4809e-07
9.80206e-06
-1.78081e-07
9.90476e-06
-1.79589e-07
9.96775e-06
-1.07614e-07
1.00374e-05
-1.21559e-07
1.01264e-05
-1.57341e-07
1.02421e-05
-2.06513e-07
1.03841e-05
-2.53295e-07
1.05513e-05
-2.98917e-07
1.07348e-05
-3.27251e-07
1.09343e-05
-3.56577e-07
1.11399e-05
-3.67175e-07
1.13598e-05
-3.94714e-07
1.15836e-05
-4.01388e-07
1.18276e-05
-4.41123e-07
1.20795e-05
-4.54329e-07
1.2357e-05
-5.06476e-07
1.26589e-05
-5.47094e-07
1.29734e-05
-5.81895e-07
1.33711e-05
-7.23246e-07
1.37092e-05
-6.36759e-07
1.42654e-05
-1.01815e-06
1.46676e-05
-7.49273e-07
1.52495e-05
-1.07723e-06
1.60456e-05
-1.43378e-06
1.64026e-05
-2.92009e-07
1.27311e-05
1.12692e-05
-2.52909e-05
2.26317e-05
1.56084e-05
3.6892e-05
1.37076e-05
4.39326e-06
1.32786e-05
9.69635e-07
1.31286e-05
3.38998e-07
1.30694e-05
1.31105e-07
1.30464e-05
4.95575e-08
1.30418e-05
8.45385e-09
1.30482e-05
-1.58628e-08
1.3061e-05
-2.98738e-08
1.30775e-05
-3.78924e-08
1.30963e-05
-4.29284e-08
1.31166e-05
-4.62818e-08
1.3138e-05
-4.8429e-08
1.316e-05
-4.96924e-08
1.31824e-05
-5.05382e-08
1.32052e-05
-5.12756e-08
1.32283e-05
-5.20507e-08
1.32519e-05
-5.30797e-08
1.32762e-05
-5.45318e-08
1.33011e-05
-5.60644e-08
1.33266e-05
-5.72319e-08
1.33524e-05
-5.80779e-08
1.33786e-05
-5.88941e-08
1.34052e-05
-5.96664e-08
1.3432e-05
-6.02114e-08
1.34591e-05
-6.04995e-08
1.34862e-05
-6.07454e-08
1.35136e-05
-6.12456e-08
1.35414e-05
-6.19866e-08
1.35695e-05
-6.28593e-08
1.35982e-05
-6.40318e-08
1.36276e-05
-6.55386e-08
1.36576e-05
-6.70468e-08
1.36883e-05
-6.83806e-08
1.37195e-05
-6.96188e-08
1.37512e-05
-7.07462e-08
1.37834e-05
-7.16797e-08
1.38159e-05
-7.23361e-08
1.38487e-05
-7.2749e-08
1.38817e-05
-7.3257e-08
1.39152e-05
-7.4165e-08
1.39493e-05
-7.54007e-08
1.3984e-05
-7.6814e-08
1.40195e-05
-7.86199e-08
1.40561e-05
-8.10611e-08
1.40941e-05
-8.40461e-08
1.41335e-05
-8.74089e-08
1.41745e-05
-9.1105e-08
1.42174e-05
-9.51485e-08
1.42622e-05
-9.96386e-08
1.43092e-05
-1.04526e-07
1.43587e-05
-1.10002e-07
1.4411e-05
-1.16667e-07
1.4467e-05
-1.25222e-07
1.45275e-05
-1.35465e-07
1.45932e-05
-1.4762e-07
1.46651e-05
-1.62267e-07
1.47444e-05
-1.79629e-07
1.48336e-05
-2.0295e-07
1.49328e-05
-2.26601e-07
1.5047e-05
-2.62457e-07
1.51824e-05
-3.13502e-07
1.53315e-05
-3.28931e-07
1.54341e-05
-2.10281e-07
1.55476e-05
-2.35404e-07
1.56842e-05
-2.93974e-07
1.5853e-05
-3.75548e-07
1.60537e-05
-4.53996e-07
1.62863e-05
-5.31897e-07
1.65405e-05
-5.81452e-07
1.68164e-05
-6.32919e-07
1.71016e-05
-6.52451e-07
1.74061e-05
-6.99724e-07
1.77167e-05
-7.122e-07
1.80534e-05
-7.78347e-07
1.84022e-05
-8.03412e-07
1.87821e-05
-8.8716e-07
1.91986e-05
-9.64132e-07
1.9625e-05
-1.00936e-06
2.01697e-05
-1.2693e-06
2.06258e-05
-1.0948e-06
2.13764e-05
-1.77111e-06
2.19194e-05
-1.29487e-06
2.27405e-05
-1.90114e-06
2.3677e-05
-2.37225e-06
2.45864e-05
-1.20385e-06
2.1813e-05
1.40414e-05
-3.51112e-05
3.16318e-05
2.17897e-05
4.77983e-05
1.92845e-05
6.89849e-06
1.87214e-05
1.53274e-06
1.85276e-05
5.3281e-07
1.84494e-05
2.09286e-07
1.84182e-05
8.0797e-08
1.84111e-05
1.55094e-08
1.84186e-05
-2.33307e-08
1.84346e-05
-4.59196e-08
1.84557e-05
-5.89931e-08
1.84801e-05
-6.72652e-08
1.85066e-05
-7.28212e-08
1.85346e-05
-7.6449e-08
1.85636e-05
-7.86643e-08
1.85932e-05
-8.01828e-08
1.86235e-05
-8.14933e-08
1.86542e-05
-8.28331e-08
1.86857e-05
-8.45237e-08
1.8718e-05
-8.68292e-08
1.87512e-05
-8.9268e-08
1.87851e-05
-9.11802e-08
1.88197e-05
-9.26063e-08
1.88547e-05
-9.39809e-08
1.88904e-05
-9.53018e-08
1.89265e-05
-9.63015e-08
1.89629e-05
-9.69238e-08
1.89996e-05
-9.74714e-08
1.90367e-05
-9.83823e-08
1.90744e-05
-9.96566e-08
1.91127e-05
-1.01137e-07
1.91517e-05
-1.03058e-07
1.91916e-05
-1.05479e-07
1.92325e-05
-1.07921e-07
1.92742e-05
-1.10116e-07
1.93168e-05
-1.12176e-07
1.93601e-05
-1.14086e-07
1.94041e-05
-1.1573e-07
1.94488e-05
-1.16984e-07
1.94939e-05
-1.17886e-07
1.95396e-05
-1.18908e-07
1.95859e-05
-1.20505e-07
1.96331e-05
-1.22609e-07
1.96813e-05
-1.25014e-07
1.97306e-05
-1.2801e-07
1.97815e-05
-1.31945e-07
1.98342e-05
-1.36712e-07
1.98888e-05
-1.42086e-07
1.99457e-05
-1.48007e-07
2.0005e-05
-1.54495e-07
2.0067e-05
-1.61704e-07
2.01321e-05
-1.69585e-07
2.02004e-05
-1.78399e-07
2.02727e-05
-1.88975e-07
2.03498e-05
-2.02378e-07
2.04327e-05
-2.18395e-07
2.05224e-05
-2.37384e-07
2.06203e-05
-2.60189e-07
2.07276e-05
-2.86995e-07
2.08475e-05
-3.23019e-07
2.09803e-05
-3.59418e-07
2.11323e-05
-4.14659e-07
2.13093e-05
-4.90658e-07
2.15174e-05
-5.37305e-07
2.16751e-05
-3.67951e-07
2.18508e-05
-4.11499e-07
2.20535e-05
-4.96703e-07
2.22928e-05
-6.1528e-07
2.25688e-05
-7.3004e-07
2.28832e-05
-8.46709e-07
2.32247e-05
-9.22998e-07
2.35946e-05
-1.00331e-06
2.3978e-05
-1.0359e-06
2.43864e-05
-1.10874e-06
2.48044e-05
-1.13043e-06
2.52541e-05
-1.22882e-06
2.57219e-05
-1.27155e-06
2.62256e-05
-1.39173e-06
2.67799e-05
-1.5191e-06
2.73412e-05
-1.57203e-06
2.80538e-05
-1.98354e-06
2.86586e-05
-1.70196e-06
2.96132e-05
-2.72865e-06
3.03314e-05
-2.01611e-06
3.1426e-05
-2.9993e-06
3.24328e-05
-3.38138e-06
3.39694e-05
-2.74334e-06
3.20172e-05
1.59921e-05
-4.39102e-05
4.08147e-05
2.92448e-05
5.97424e-05
2.60027e-05
1.01407e-05
2.52478e-05
2.28755e-06
2.49893e-05
7.91379e-07
2.48823e-05
3.16293e-07
2.48377e-05
1.2537e-07
2.48257e-05
2.75173e-08
2.48334e-05
-3.10263e-08
2.48529e-05
-6.54364e-08
2.48795e-05
-8.56133e-08
2.49108e-05
-9.84926e-08
2.49452e-05
-1.07223e-07
2.49817e-05
-1.13041e-07
2.50198e-05
-1.16726e-07
2.50589e-05
-1.19309e-07
2.5099e-05
-1.21515e-07
2.51398e-05
-1.2371e-07
2.51816e-05
-1.26339e-07
2.52246e-05
-1.29787e-07
2.52688e-05
-1.33437e-07
2.5314e-05
-1.36387e-07
2.536e-05
-1.38655e-07
2.54069e-05
-1.40838e-07
2.54545e-05
-1.42965e-07
2.55029e-05
-1.44677e-07
2.55518e-05
-1.45878e-07
2.56013e-05
-1.46956e-07
2.56514e-05
-1.4851e-07
2.57024e-05
-1.50572e-07
2.57541e-05
-1.52934e-07
2.5807e-05
-1.559e-07
2.5861e-05
-1.59556e-07
2.59164e-05
-1.63269e-07
2.59729e-05
-1.66665e-07
2.60306e-05
-1.69888e-07
2.60895e-05
-1.72931e-07
2.61494e-05
-1.7564e-07
2.62102e-05
-1.7785e-07
2.62719e-05
-1.79594e-07
2.63345e-05
-1.81475e-07
2.63981e-05
-1.84116e-07
2.64629e-05
-1.87484e-07
2.65292e-05
-1.91331e-07
2.65972e-05
-1.9601e-07
2.66672e-05
-2.01975e-07
2.67396e-05
-2.09123e-07
2.68147e-05
-2.17184e-07
2.68927e-05
-2.26086e-07
2.69741e-05
-2.35857e-07
2.7059e-05
-2.46722e-07
2.71481e-05
-2.58643e-07
2.72416e-05
-2.71967e-07
2.73403e-05
-2.87732e-07
2.74453e-05
-3.07428e-07
2.75577e-05
-3.30902e-07
2.76789e-05
-3.58685e-07
2.78106e-05
-3.91973e-07
2.79543e-05
-4.30703e-07
2.81139e-05
-4.82818e-07
2.82895e-05
-5.35172e-07
2.84897e-05
-6.15065e-07
2.87191e-05
-7.20218e-07
2.90023e-05
-8.20819e-07
2.92319e-05
-5.97628e-07
2.94902e-05
-6.70354e-07
2.97809e-05
-7.874e-07
3.01135e-05
-9.48427e-07
3.04881e-05
-1.10462e-06
3.09081e-05
-1.26729e-06
3.13619e-05
-1.37677e-06
3.18517e-05
-1.49387e-06
3.23608e-05
-1.54507e-06
3.29014e-05
-1.65018e-06
3.34568e-05
-1.68601e-06
3.40492e-05
-1.82226e-06
3.46676e-05
-1.89036e-06
3.53254e-05
-2.05063e-06
3.60495e-05
-2.24412e-06
3.67785e-05
-2.30274e-06
3.76861e-05
-2.89334e-06
3.84791e-05
-2.49792e-06
3.96572e-05
-3.91041e-06
4.05667e-05
-2.92943e-06
4.20112e-05
-4.44819e-06
4.29453e-05
-4.3183e-06
4.52773e-05
-5.07884e-06
4.34892e-05
1.77784e-05
-5.14185e-05
5.09957e-05
3.84914e-05
7.25812e-05
3.43649e-05
1.42672e-05
3.33349e-05
3.31751e-06
3.29787e-05
1.14758e-06
3.28272e-05
4.67843e-07
3.27609e-05
1.91616e-07
3.27396e-05
4.88063e-08
3.27457e-05
-3.70915e-08
3.27684e-05
-8.81668e-08
3.28014e-05
-1.18556e-07
3.2841e-05
-1.38139e-07
3.28853e-05
-1.5153e-07
3.29329e-05
-1.60631e-07
3.29828e-05
-1.66592e-07
3.30343e-05
-1.70848e-07
3.30873e-05
-1.7444e-07
3.31415e-05
-1.7792e-07
3.3197e-05
-1.81885e-07
3.32541e-05
-1.86869e-07
3.33128e-05
-1.92138e-07
3.33729e-05
-1.96524e-07
3.34343e-05
-1.99996e-07
3.34967e-05
-2.0333e-07
3.35604e-05
-2.06617e-07
3.36251e-05
-2.09399e-07
3.36907e-05
-2.11524e-07
3.37572e-05
-2.1346e-07
3.38247e-05
-2.15982e-07
3.38933e-05
-2.19175e-07
3.39631e-05
-2.2279e-07
3.40344e-05
-2.27193e-07
3.41073e-05
-2.32504e-07
3.4182e-05
-2.3793e-07
3.42583e-05
-2.42977e-07
3.43362e-05
-2.47817e-07
3.44157e-05
-2.5246e-07
3.44968e-05
-2.56717e-07
3.45793e-05
-2.60378e-07
3.46632e-05
-2.6346e-07
3.47484e-05
-2.6669e-07
3.48351e-05
-2.7087e-07
3.49236e-05
-2.76042e-07
3.50142e-05
-2.81936e-07
3.51071e-05
-2.88959e-07
3.52028e-05
-2.97664e-07
3.53016e-05
-3.07969e-07
3.5404e-05
-3.19583e-07
3.55103e-05
-3.32435e-07
3.56209e-05
-3.46567e-07
3.57364e-05
-3.62285e-07
3.58573e-05
-3.7959e-07
3.59842e-05
-3.98927e-07
3.61179e-05
-4.21526e-07
3.62598e-05
-4.49336e-07
3.64111e-05
-4.82361e-07
3.65737e-05
-5.21339e-07
3.67496e-05
-5.6799e-07
3.69404e-05
-6.21629e-07
3.71513e-05
-6.93955e-07
3.7382e-05
-7.66005e-07
3.76436e-05
-8.77014e-07
3.79391e-05
-1.01593e-06
3.83173e-05
-1.19946e-06
3.86394e-05
-9.19917e-07
3.90055e-05
-1.03711e-06
3.94118e-05
-1.19378e-06
3.98675e-05
-1.40485e-06
4.03721e-05
-1.60915e-06
4.09303e-05
-1.82632e-06
4.15301e-05
-1.97663e-06
4.21748e-05
-2.13948e-06
4.28459e-05
-2.21628e-06
4.35554e-05
-2.36079e-06
4.42862e-05
-2.41716e-06
4.50586e-05
-2.59598e-06
4.5866e-05
-2.69832e-06
4.67138e-05
-2.89993e-06
4.76428e-05
-3.17432e-06
4.85719e-05
-3.23406e-06
4.96997e-05
-4.02382e-06
5.0697e-05
-3.49902e-06
5.21173e-05
-5.33523e-06
5.31549e-05
-3.97178e-06
5.49953e-05
-6.2938e-06
5.56113e-05
-4.93784e-06
5.87921e-05
-8.26364e-06
5.69756e-05
1.95928e-05
-5.77174e-05
6.32723e-05
5.0057e-05
8.59142e-05
4.49033e-05
1.9421e-05
4.34845e-05
4.73625e-06
4.29823e-05
1.64978e-06
4.27628e-05
6.87328e-07
4.26622e-05
2.92239e-07
4.26247e-05
8.62924e-08
4.26258e-05
-3.81717e-08
4.26507e-05
-1.13079e-07
4.26905e-05
-1.58352e-07
4.27402e-05
-1.87817e-07
4.27968e-05
-2.08132e-07
4.28584e-05
-2.22188e-07
4.29234e-05
-2.31669e-07
4.29911e-05
-2.38544e-07
4.3061e-05
-2.44274e-07
4.31327e-05
-2.49685e-07
4.32064e-05
-2.55563e-07
4.32822e-05
-2.6263e-07
4.33601e-05
-2.7007e-07
4.344e-05
-2.76438e-07
4.35216e-05
-2.81617e-07
4.36049e-05
-2.86578e-07
4.36897e-05
-2.91504e-07
4.37762e-05
-2.95851e-07
4.3864e-05
-2.99391e-07
4.39532e-05
-3.02654e-07
4.40438e-05
-3.06599e-07
4.4136e-05
-3.11398e-07
4.423e-05
-3.16768e-07
4.43259e-05
-3.23134e-07
4.4424e-05
-3.30653e-07
4.45245e-05
-3.38375e-07
4.46271e-05
-3.4567e-07
4.4732e-05
-3.52736e-07
4.48392e-05
-3.59607e-07
4.49485e-05
-3.66066e-07
4.506e-05
-3.71855e-07
4.51734e-05
-3.76973e-07
4.5289e-05
-3.8225e-07
4.54067e-05
-3.88667e-07
4.5527e-05
-3.96377e-07
4.56502e-05
-4.05134e-07
4.57766e-05
-4.15394e-07
4.59067e-05
-4.27787e-07
4.60409e-05
-4.4227e-07
4.61798e-05
-4.58559e-07
4.6324e-05
-4.76611e-07
4.64738e-05
-4.96491e-07
4.663e-05
-5.18598e-07
4.67934e-05
-5.43002e-07
4.69646e-05
-5.70282e-07
4.71448e-05
-6.01833e-07
4.73354e-05
-6.40076e-07
4.75382e-05
-6.85272e-07
4.77551e-05
-7.38394e-07
4.79889e-05
-8.01975e-07
4.82413e-05
-8.74147e-07
4.85186e-05
-9.71686e-07
4.88202e-05
-1.06781e-06
4.91606e-05
-1.21789e-06
4.95401e-05
-1.39569e-06
5.00389e-05
-1.69896e-06
5.04797e-05
-1.36093e-06
5.09852e-05
-1.54358e-06
5.15431e-05
-1.75177e-06
5.21618e-05
-2.02449e-06
5.28396e-05
-2.28699e-06
5.35814e-05
-2.56917e-06
5.43734e-05
-2.76874e-06
5.52181e-05
-2.98533e-06
5.60948e-05
-3.09323e-06
5.70133e-05
-3.28076e-06
5.79557e-05
-3.35997e-06
5.89371e-05
-3.57903e-06
5.99535e-05
-3.71545e-06
6.09975e-05
-3.94579e-06
6.2121e-05
-4.29939e-06
6.32115e-05
-4.32733e-06
6.4499e-05
-5.31466e-06
6.55855e-05
-4.59007e-06
6.71123e-05
-6.86755e-06
6.80736e-05
-4.93874e-06
7.00683e-05
-8.29469e-06
7.01421e-05
-5.01566e-06
7.39141e-05
-1.20402e-05
7.2184e-05
2.13206e-05
-6.31469e-05
7.76106e-05
6.45129e-05
9.91195e-05
5.82288e-05
2.57052e-05
5.62738e-05
6.69121e-06
5.55558e-05
2.36779e-06
5.52342e-05
1.00894e-06
5.50804e-05
4.46066e-07
5.50161e-05
1.50553e-07
5.50067e-05
-2.87514e-08
5.50316e-05
-1.37964e-07
5.50783e-05
-2.05042e-07
5.51396e-05
-2.49152e-07
5.52113e-05
-2.79792e-07
5.52904e-05
-3.01333e-07
5.5375e-05
-3.16243e-07
5.54636e-05
-3.272e-07
5.55556e-05
-3.36224e-07
5.56504e-05
-3.44538e-07
5.5748e-05
-3.53176e-07
5.58485e-05
-3.63103e-07
5.59519e-05
-3.73473e-07
5.6058e-05
-3.82575e-07
5.61666e-05
-3.90173e-07
5.62774e-05
-3.97425e-07
5.63905e-05
-4.04654e-07
5.65059e-05
-4.11247e-07
5.66234e-05
-4.16892e-07
5.67429e-05
-4.22156e-07
5.68644e-05
-4.28177e-07
5.69883e-05
-4.35239e-07
5.71145e-05
-4.43053e-07
5.72435e-05
-4.52096e-07
5.73753e-05
-4.62568e-07
5.75103e-05
-4.73367e-07
5.76483e-05
-4.83718e-07
5.77894e-05
-4.9383e-07
5.79335e-05
-5.0378e-07
5.80808e-05
-5.13326e-07
5.82311e-05
-5.22173e-07
5.83843e-05
-5.30296e-07
5.85407e-05
-5.3861e-07
5.87002e-05
-5.48262e-07
5.88633e-05
-5.59538e-07
5.90304e-05
-5.72267e-07
5.92019e-05
-5.86974e-07
5.93784e-05
-6.04348e-07
5.95604e-05
-6.24383e-07
5.97486e-05
-6.4683e-07
5.99436e-05
-6.7171e-07
6.01461e-05
-6.99137e-07
6.0357e-05
-7.29621e-07
6.05772e-05
-7.63326e-07
6.08078e-05
-8.01018e-07
6.10501e-05
-8.44263e-07
6.13057e-05
-8.95925e-07
6.15769e-05
-9.56622e-07
6.18658e-05
-1.02755e-06
6.2176e-05
-1.11247e-06
6.25093e-05
-1.20768e-06
6.28735e-05
-1.33647e-06
6.32673e-05
-1.46191e-06
6.37094e-05
-1.66079e-06
6.41967e-05
-1.88332e-06
6.48504e-05
-2.35374e-06
6.54441e-05
-1.9549e-06
6.61296e-05
-2.23042e-06
6.68842e-05
-2.50641e-06
6.77147e-05
-2.85634e-06
6.86166e-05
-3.18896e-06
6.95895e-05
-3.54346e-06
7.06118e-05
-3.79112e-06
7.16777e-05
-4.05283e-06
7.27582e-05
-4.17404e-06
7.38558e-05
-4.38008e-06
7.49451e-05
-4.44995e-06
7.6035e-05
-4.67093e-06
7.7118e-05
-4.79943e-06
7.81773e-05
-5.00728e-06
7.92743e-05
-5.39829e-06
8.02778e-05
-5.33419e-06
8.14494e-05
-6.49027e-06
8.23649e-05
-5.51099e-06
8.37247e-05
-8.23376e-06
8.44497e-05
-5.67025e-06
8.63999e-05
-1.0252e-05
8.61721e-05
-4.7924e-06
9.0251e-05
-1.61241e-05
8.92299e-05
2.2339e-05
-6.7815e-05
9.38945e-05
8.24787e-05
0.000111385
7.50608e-05
3.31231e-05
7.23927e-05
9.35928e-06
7.13608e-05
3.39969e-06
7.08878e-05
1.48193e-06
7.06535e-05
6.80438e-07
7.05467e-05
2.57262e-07
7.05183e-05
-2.85007e-10
7.05392e-05
-1.58925e-07
7.05921e-05
-2.57908e-07
7.06666e-05
-3.23688e-07
7.07566e-05
-3.69701e-07
7.08577e-05
-4.02499e-07
7.09672e-05
-4.25717e-07
7.1083e-05
-4.4299e-07
7.12038e-05
-4.57072e-07
7.1329e-05
-4.69754e-07
7.14583e-05
-4.82416e-07
7.15915e-05
-4.96329e-07
7.17287e-05
-5.10691e-07
7.18697e-05
-5.2358e-07
7.20141e-05
-5.34607e-07
7.21618e-05
-5.45095e-07
7.23126e-05
-5.55549e-07
7.24667e-05
-5.65334e-07
7.26238e-05
-5.74052e-07
7.27839e-05
-5.82283e-07
7.2947e-05
-5.91322e-07
7.31133e-05
-6.01584e-07
7.3283e-05
-6.12804e-07
7.34564e-05
-6.25515e-07
7.36337e-05
-6.39959e-07
7.38152e-05
-6.54904e-07
7.40009e-05
-6.69421e-07
7.41908e-05
-6.83715e-07
7.43848e-05
-6.97906e-07
7.45832e-05
-7.11756e-07
7.47859e-05
-7.24939e-07
7.4993e-05
-7.37415e-07
7.52045e-05
-7.50173e-07
7.54206e-05
-7.64497e-07
7.56418e-05
-7.8081e-07
7.58685e-05
-7.99061e-07
7.61013e-05
-8.19885e-07
7.63409e-05
-8.4403e-07
7.65879e-05
-8.71516e-07
7.68431e-05
-9.02144e-07
7.71073e-05
-9.36032e-07
7.73813e-05
-9.73379e-07
7.76664e-05
-1.01484e-06
7.79635e-05
-1.06069e-06
7.82742e-05
-1.11196e-06
7.86001e-05
-1.17043e-06
7.89433e-05
-1.23937e-06
7.93061e-05
-1.31984e-06
7.96915e-05
-1.41317e-06
8.01033e-05
-1.52481e-06
8.0544e-05
-1.64869e-06
8.10224e-05
-1.8157e-06
8.15369e-05
-1.9769e-06
8.21105e-05
-2.23561e-06
8.2736e-05
-2.50936e-06
8.35872e-05
-3.20639e-06
8.43711e-05
-2.73913e-06
8.52718e-05
-3.13294e-06
8.62474e-05
-3.48214e-06
8.72927e-05
-3.90329e-06
8.83861e-05
-4.28248e-06
8.95073e-05
-4.6664e-06
9.06164e-05
-4.90041e-06
9.16984e-05
-5.1367e-06
9.27222e-05
-5.19821e-06
9.36988e-05
-5.3589e-06
9.46143e-05
-5.36619e-06
9.5494e-05
-5.55307e-06
9.63463e-05
-5.6529e-06
9.71709e-05
-5.83452e-06
9.80436e-05
-6.27338e-06
9.88516e-05
-6.14603e-06
9.98556e-05
-7.49903e-06
0.000100666
-6.32754e-06
0.000101978
-9.55265e-06
0.000102694
-6.39398e-06
0.000104779
-1.2345e-05
0.000104693
-4.71117e-06
0.000108932
-2.03682e-05
0.000109349
2.19188e-05
-7.09556e-05
0.000112485
0.000104591
0.000121712
9.62375e-05
4.1477e-05
9.26749e-05
1.29218e-05
9.11981e-05
4.87653e-06
9.05043e-05
2.17578e-06
9.01505e-05
1.0342e-06
8.99788e-05
4.2898e-07
8.99187e-05
5.98621e-08
8.99295e-05
-1.69787e-07
8.99868e-05
-3.15195e-07
9.0076e-05
-4.1284e-07
9.01878e-05
-4.81593e-07
9.03165e-05
-5.3118e-07
9.04578e-05
-5.66966e-07
9.06087e-05
-5.93909e-07
9.07673e-05
-6.15715e-07
9.09325e-05
-6.34971e-07
9.11036e-05
-6.5354e-07
9.12804e-05
-6.73095e-07
9.14627e-05
-6.92974e-07
9.16502e-05
-7.11133e-07
9.18426e-05
-7.27037e-07
9.20396e-05
-7.42128e-07
9.22411e-05
-7.5712e-07
9.24472e-05
-7.71419e-07
9.26576e-05
-7.84577e-07
9.28724e-05
-7.9716e-07
9.30916e-05
-8.10594e-07
9.33154e-05
-8.25422e-07
9.3544e-05
-8.41437e-07
9.37776e-05
-8.5923e-07
9.40167e-05
-8.79095e-07
9.42614e-05
-8.99692e-07
9.45119e-05
-9.19949e-07
9.47682e-05
-9.40035e-07
9.50303e-05
-9.60116e-07
9.52984e-05
-9.79973e-07
9.55727e-05
-9.99279e-07
9.58532e-05
-1.018e-06
9.61401e-05
-1.03719e-06
9.64337e-05
-1.05827e-06
9.67345e-05
-1.08177e-06
9.70431e-05
-1.10777e-06
9.73601e-05
-1.13706e-06
9.76864e-05
-1.17047e-06
9.80227e-05
-1.20805e-06
9.837e-05
-1.24964e-06
9.87292e-05
-1.29544e-06
9.91013e-05
-1.34576e-06
9.94876e-05
-1.4014e-06
9.98893e-05
-1.46278e-06
0.000100308
-1.53119e-06
0.000100746
-1.60868e-06
0.000101205
-1.69886e-06
0.000101688
-1.80321e-06
0.000102197
-1.92303e-06
0.000102737
-2.06528e-06
0.00010331
-2.22183e-06
0.000103923
-2.42984e-06
0.000104575
-2.63006e-06
0.000105288
-2.9499e-06
0.000106054
-3.27603e-06
0.000107072
-4.22638e-06
0.000107969
-3.63678e-06
0.000108942
-4.10776e-06
0.000109919
-4.45952e-06
0.000110876
-4.86279e-06
0.000111786
-5.19213e-06
0.000112637
-5.52014e-06
0.000113418
-5.68108e-06
0.000114147
-5.86773e-06
0.000114826
-5.87797e-06
0.000115492
-6.02772e-06
0.000116147
-6.02175e-06
0.000116824
-6.23347e-06
0.000117531
-6.36119e-06
0.000118274
-6.58005e-06
0.00011911
-7.11238e-06
0.00011995
-6.99094e-06
0.000121015
-8.56874e-06
0.000121958
-7.27727e-06
0.000123418
-1.10211e-05
0.00012434
-7.32428e-06
0.000126674
-1.46869e-05
0.000127023
-5.06544e-06
0.00013122
-2.45704e-05
0.000133566
1.95684e-05
-7.14808e-05
0.000134086
0.000131411
0.000128967
0.000122692
5.01963e-05
0.000118119
1.74945e-05
0.00011604
6.9557e-06
0.000115032
3.18406e-06
0.000114506
1.56076e-06
0.000114237
6.97042e-07
0.000114128
1.69509e-07
0.00011412
-1.61589e-07
0.000114178
-3.73987e-07
0.000114284
-5.1804e-07
0.000114422
-6.20109e-07
0.000114585
-6.94451e-07
0.000114767
-7.48983e-07
0.000114964
-7.90522e-07
0.000115172
-8.24022e-07
0.00011539
-8.53145e-07
0.000115617
-8.80437e-07
0.000115852
-9.08106e-07
0.000116095
-9.35738e-07
0.000116345
-9.61305e-07
0.000116602
-9.84183e-07
0.000116866
-1.0059e-06
0.000117136
-1.02736e-06
0.000117413
-1.04808e-06
0.000117696
-1.06764e-06
0.000117985
-1.08658e-06
0.000118281
-1.10646e-06
0.000118583
-1.1279e-06
0.000118892
-1.15079e-06
0.000119209
-1.17577e-06
0.000119533
-1.20321e-06
0.000119865
-1.23166e-06
0.000120205
-1.25995e-06
0.000120553
-1.28818e-06
0.000120909
-1.31653e-06
0.000121274
-1.34479e-06
0.000121647
-1.37265e-06
0.000122029
-1.40008e-06
0.00012242
-1.42823e-06
0.00012282
-1.4586e-06
0.00012323
-1.49179e-06
0.00012365
-1.52791e-06
0.00012408
-1.56781e-06
0.000124522
-1.61236e-06
0.000124975
-1.66153e-06
0.00012544
-1.71502e-06
0.000125917
-1.77292e-06
0.000126406
-1.83534e-06
0.000126907
-1.90299e-06
0.00012742
-1.97613e-06
0.000127945
-2.05595e-06
0.00012848
-2.14455e-06
0.000129026
-2.2455e-06
0.000129583
-2.36051e-06
0.000130149
-2.49054e-06
0.000130727
-2.6437e-06
0.000131315
-2.81098e-06
0.000131917
-3.03284e-06
0.000132533
-3.24758e-06
0.000133174
-3.59278e-06
0.000133849
-3.95158e-06
0.000134652
-5.0319e-06
0.000135265
-4.25019e-06
0.000135875
-4.72044e-06
0.000136452
-5.03734e-06
0.000136999
-5.41221e-06
0.000137518
-5.71115e-06
0.000138026
-6.03117e-06
0.000138531
-6.18598e-06
0.000139058
-6.39733e-06
0.000139607
-6.42786e-06
0.000140207
-6.63022e-06
0.000140848
-6.66453e-06
0.000141559
-6.94697e-06
0.000142334
-7.13839e-06
0.000143183
-7.43193e-06
0.000144145
-8.07807e-06
0.000145155
-8.00579e-06
0.000146388
-9.80729e-06
0.00014757
-8.46741e-06
0.000149241
-1.27003e-05
0.00015049
-8.58154e-06
0.000153063
-1.72692e-05
0.000154085
-6.09249e-06
0.00015803
-2.85208e-05
0.000162598
1.49951e-05
-6.88378e-05
0.000159949