/*--------------------------------*- C++ -*----------------------------------*\
| =========                 |                                                 |
| \\      /  F ield         | OpenFOAM: The Open Source CFD Toolbox           |
|  \\    /   O peration     | Version:  5.x                                   |
|   \\  /    A nd           | Web:      www.OpenFOAM.org                      |
|    \\/     M anipulation  |                                                 |
\*---------------------------------------------------------------------------*/
FoamFile
{
    version     2.0;
    format      ascii;
    class       volVectorField;
    location    "50";
    object      U;
}
// * * * * * * * * * * * * * * * * * * * * * * * * * * * * * * * * * * * * * //

dimensions      [0 1 -1 0 0 0 0];

internalField   nonuniform List<vector> 
20540
(
(47.9208 -0.000349078 0)
(56.2425 0.00587556 0)
(47.6617 -0.00116996 0)
(56.8089 0.0171246 0)
(47.2884 -0.00224169 0)
(57.432 0.0278388 0)
(46.805 -0.00362087 0)
(58.0204 0.0380155 0)
(46.2342 -0.00536521 0)
(58.4597 0.0479787 0)
(45.6267 -0.00750673 0)
(58.5925 0.0579987 0)
(45.0689 -0.0100207 0)
(58.2489 0.0677647 0)
(44.6838 -0.0128117 0)
(57.3754 0.0765613 0)
(44.6119 -0.015717 0)
(56.089 0.0837681 0)
(44.9409 -0.0184731 0)
(54.567 0.0888461 0)
(45.621 -0.0208102 0)
(52.9523 0.091275 0)
(46.5161 -0.0225172 0)
(51.3629 0.0906615 0)
(47.4805 -0.0233224 0)
(49.9475 0.0872372 0)
(48.3504 -0.0230578 0)
(48.944 0.0824344 0)
(48.9089 -0.0221707 0)
(48.6021 0.0786936 0)
(49.0484 -0.021555 0)
(48.7678 0.0773461 0)
(49.0077 -0.0212544 0)
(48.9056 0.0766805 0)
(48.9874 -0.0209172 0)
(48.9246 0.0756712 0)
(48.9874 -0.0205053 0)
(48.9222 0.074356 0)
(48.9881 -0.0200167 0)
(48.9227 0.0727416 0)
(48.9882 -0.0194348 0)
(48.924 0.070784 0)
(48.9884 -0.0187397 0)
(48.9256 0.0684233 0)
(48.9886 -0.0179113 0)
(48.9274 0.0655847 0)
(48.9889 -0.0169275 0)
(48.9295 0.0621853 0)
(48.9891 -0.0157645 0)
(48.9319 0.0581321 0)
(48.9895 -0.0143959 0)
(48.9345 0.0533179 0)
(48.9898 -0.0127941 0)
(48.9374 0.0476188 0)
(48.9902 -0.010928 0)
(48.9406 0.0408899 0)
(48.9906 -0.00876542 0)
(48.9437 0.0329658 0)
(48.991 -0.00626679 0)
(48.9467 0.0236288 0)
(48.9912 -0.00369235 0)
(48.9489 0.0138196 0)
(48.9913 -0.00124108 0)
(48.95 0.00435353 0)
(48.9913 0.00119144 0)
(48.9501 -0.00507468 0)
(48.9912 0.00363826 0)
(48.9492 -0.0145612 0)
(48.9909 0.0061621 0)
(48.9473 -0.024258 0)
(48.9905 0.00857637 0)
(48.9447 -0.0333912 0)
(48.9901 0.0106721 0)
(48.9418 -0.0411972 0)
(48.9897 0.0124878 0)
(48.939 -0.0478695 0)
(48.9893 0.014053 0)
(48.9362 -0.053558 0)
(48.989 0.0153973 0)
(48.9337 -0.0583954 0)
(48.9887 0.0165461 0)
(48.9315 -0.0624955 0)
(48.9884 0.0175236 0)
(48.9295 -0.065958 0)
(48.9882 0.0183522 0)
(48.9278 -0.0688701 0)
(48.988 0.0190515 0)
(48.9263 -0.0713091 0)
(48.9879 0.0196388 0)
(48.9249 -0.0733446 0)
(48.9876 0.0201346 0)
(48.9239 -0.0750392 0)
(48.9866 0.0205563 0)
(48.9248 -0.0764417 0)
(48.9918 0.0209083 0)
(48.9246 -0.0775706 0)
(49.0245 0.0211905 0)
(48.871 -0.0783874 0)
(49.026 0.0215449 0)
(48.6969 -0.0790771 0)
(48.762 0.0222579 0)
(48.664 -0.0810801 0)
(48.1194 0.0229405 0)
(49.2254 -0.0851137 0)
(47.2512 0.0228502 0)
(50.3636 -0.0893927 0)
(46.3443 0.021773 0)
(51.8302 -0.0918999 0)
(45.5509 0.0198977 0)
(53.4172 -0.0915816 0)
(45.0111 0.0174702 0)
(54.9883 -0.0884242 0)
(44.8297 0.0147124 0)
(56.4177 -0.0828333 0)
(45.0054 0.0118976 0)
(57.5491 -0.0753046 0)
(45.4317 0.00925085 0)
(58.2236 -0.0663901 0)
(45.9811 0.00690266 0)
(58.3868 -0.0567436 0)
(46.5502 0.00492414 0)
(58.1401 -0.0469441 0)
(47.0704 0.00332196 0)
(57.6448 -0.0371649 0)
(47.5038 0.00205773 0)
(57.0354 -0.0271579 0)
(47.8356 0.0010752 0)
(56.4098 -0.0166634 0)
(48.0655 0.000321005 0)
(55.8493 -0.00570467 0)
(4.81823 0.00627502 0)
(3.46062 3.83709e-05 0)
(3.2556 9.00649e-06 0)
(3.18682 4.16825e-06 0)
(3.16235 2.0989e-06 0)
(3.15314 1.16862e-06 0)
(3.15081 6.52692e-07 0)
(3.15262 3.33833e-07 0)
(3.15682 1.38279e-07 0)
(3.1623 1.517e-08 0)
(3.16856 -7.0079e-08 0)
(3.17533 -1.31649e-07 0)
(3.18244 -1.76829e-07 0)
(3.18975 -2.07371e-07 0)
(3.19717 -2.28692e-07 0)
(3.20468 -2.46342e-07 0)
(3.21229 -2.62529e-07 0)
(3.22001 -2.77361e-07 0)
(3.22792 -2.91036e-07 0)
(3.23609 -3.07055e-07 0)
(3.24447 -3.22195e-07 0)
(3.25299 -3.36591e-07 0)
(3.26162 -3.51759e-07 0)
(3.27038 -3.70118e-07 0)
(3.27923 -3.8768e-07 0)
(3.28813 -4.03028e-07 0)
(3.29706 -4.13894e-07 0)
(3.30602 -4.23845e-07 0)
(3.31509 -4.37265e-07 0)
(3.32428 -4.54295e-07 0)
(3.33362 -4.67506e-07 0)
(3.34317 -4.77601e-07 0)
(3.35298 -4.90376e-07 0)
(3.363 -5.08856e-07 0)
(3.37321 -5.31993e-07 0)
(3.38361 -5.58726e-07 0)
(3.39416 -5.85527e-07 0)
(3.40482 -6.1737e-07 0)
(3.41554 -6.48301e-07 0)
(3.4263 -6.67455e-07 0)
(3.43716 -6.86176e-07 0)
(3.44819 -7.27152e-07 0)
(3.45942 -7.83481e-07 0)
(3.47088 -8.24298e-07 0)
(3.48268 -8.58271e-07 0)
(3.49493 -9.18373e-07 0)
(3.5077 -1.01207e-06 0)
(3.52103 -1.13493e-06 0)
(3.53499 -1.28642e-06 0)
(3.54963 -1.47179e-06 0)
(3.56504 -1.70866e-06 0)
(3.58126 -1.98922e-06 0)
(3.59846 -2.29584e-06 0)
(3.61692 -2.66284e-06 0)
(3.63703 -3.17918e-06 0)
(3.65896 -3.77089e-06 0)
(3.68322 -4.60077e-06 0)
(3.71016 -5.42401e-06 0)
(3.74054 -6.91546e-06 0)
(3.77553 -8.61804e-06 0)
(3.81451 -1.08886e-05 0)
(3.86236 -1.3592e-05 0)
(3.91821 -1.05732e-05 0)
(3.95657 -4.22421e-06 0)
(3.98637 -6.15167e-06 0)
(4.02741 -3.26858e-06 0)
(4.08161 -4.24591e-06 0)
(4.15228 -1.24336e-05 0)
(4.23414 -3.04406e-05 0)
(4.33111 -4.74725e-05 0)
(4.4301 -6.60119e-05 0)
(4.54449 -8.03696e-05 0)
(4.65166 -9.45479e-05 0)
(4.7838 -0.000108731 0)
(4.89885 -0.000123161 0)
(5.05684 -0.0001421 0)
(5.18653 -0.000166517 0)
(5.37755 -0.000185082 0)
(5.54381 -0.000249675 0)
(5.75477 -0.00019799 0)
(6.02978 -0.000474896 0)
(6.17914 7.69458e-05 0)
(6.72272 -0.000823427 0)
(6.72336 -0.000341716 0)
(7.28693 0.00571719 0)
(8.31668 -0.0101316 0)
(4.73778 0.0632976 0)
(-4.92178 -1.19405 0)
(14.5089 0.0194093 0)
(10.9703 0.000843742 0)
(10.3145 0.000176326 0)
(10.0921 6.53307e-05 0)
(10.0104 2.60847e-05 0)
(9.97865 1.04561e-05 0)
(9.96945 2.20404e-06 0)
(9.97363 -2.98167e-06 0)
(9.98563 -6.19855e-06 0)
(10.0019 -8.25718e-06 0)
(10.0207 -9.7564e-06 0)
(10.0412 -1.09411e-05 0)
(10.0628 -1.18878e-05 0)
(10.0851 -1.26491e-05 0)
(10.1077 -1.33347e-05 0)
(10.1306 -1.40272e-05 0)
(10.1538 -1.47674e-05 0)
(10.1774 -1.56294e-05 0)
(10.2015 -1.66754e-05 0)
(10.2264 -1.78043e-05 0)
(10.252 -1.88583e-05 0)
(10.2779 -1.98511e-05 0)
(10.3042 -2.08839e-05 0)
(10.3309 -2.19486e-05 0)
(10.3579 -2.29614e-05 0)
(10.385 -2.39039e-05 0)
(10.4121 -2.48643e-05 0)
(10.4394 -2.59859e-05 0)
(10.467 -2.72744e-05 0)
(10.4949 -2.86898e-05 0)
(10.5232 -3.03247e-05 0)
(10.5522 -3.22163e-05 0)
(10.5819 -3.42033e-05 0)
(10.6122 -3.6197e-05 0)
(10.6432 -3.82403e-05 0)
(10.6746 -4.03129e-05 0)
(10.7065 -4.23462e-05 0)
(10.7387 -4.4283e-05 0)
(10.7711 -4.61284e-05 0)
(10.8036 -4.81194e-05 0)
(10.8364 -5.05168e-05 0)
(10.8696 -5.33074e-05 0)
(10.9035 -5.63816e-05 0)
(10.9379 -5.99225e-05 0)
(10.9734 -6.42151e-05 0)
(11.0101 -6.92773e-05 0)
(11.0483 -7.50153e-05 0)
(11.0881 -8.14331e-05 0)
(11.1297 -8.8601e-05 0)
(11.1733 -9.6687e-05 0)
(11.219 -0.000105721 0)
(11.267 -0.000116038 0)
(11.3177 -0.000128539 0)
(11.372 -0.000144319 0)
(11.4308 -0.000163482 0)
(11.4947 -0.000186518 0)
(11.5652 -0.000215022 0)
(11.643 -0.000249622 0)
(11.7303 -0.000296541 0)
(11.8305 -0.000348177 0)
(11.941 -0.000424779 0)
(12.0759 -0.000533517 0)
(12.2364 -0.000524505 0)
(12.3479 -0.000444157 0)
(12.4307 -0.000546087 0)
(12.5403 -0.000776217 0)
(12.6863 -0.0011032 0)
(12.8805 -0.00145586 0)
(13.1071 -0.00184783 0)
(13.3777 -0.00215862 0)
(13.6532 -0.00250518 0)
(13.9717 -0.00273892 0)
(14.267 -0.0031246 0)
(14.63 -0.00337171 0)
(14.9414 -0.00393131 0)
(15.3672 -0.00429215 0)
(15.7115 -0.00509885 0)
(16.2142 -0.00579065 0)
(16.6504 -0.00669523 0)
(17.1848 -0.0084343 0)
(17.9065 -0.00868101 0)
(18.2476 -0.0125981 0)
(19.6646 -0.0117026 0)
(19.6128 -0.0161518 0)
(21.1652 -0.0107656 0)
(23.3545 -0.0330508 0)
(18.3765 0.480035 0)
(7.21397 -1.5526 0)
(23.0115 0.0335589 0)
(18.276 0.00272312 0)
(17.3067 0.00060213 0)
(16.9735 0.000221054 0)
(16.8471 8.79097e-05 0)
(16.7963 3.45423e-05 0)
(16.7801 6.42839e-06 0)
(16.7844 -1.12495e-05 0)
(16.8007 -2.226e-05 0)
(16.8236 -2.93135e-05 0)
(16.8506 -3.44438e-05 0)
(16.8801 -3.85024e-05 0)
(16.9115 -4.17543e-05 0)
(16.9438 -4.43818e-05 0)
(16.9767 -4.67611e-05 0)
(17.0101 -4.91648e-05 0)
(17.044 -5.1737e-05 0)
(17.0783 -5.47314e-05 0)
(17.1135 -5.83744e-05 0)
(17.1497 -6.23016e-05 0)
(17.1868 -6.59736e-05 0)
(17.2246 -6.94257e-05 0)
(17.2628 -7.30123e-05 0)
(17.3015 -7.67012e-05 0)
(17.3407 -8.02166e-05 0)
(17.3801 -8.34912e-05 0)
(17.4195 -8.68369e-05 0)
(17.4591 -9.07403e-05 0)
(17.4992 -9.52167e-05 0)
(17.5397 -0.000100124 0)
(17.5808 -0.000105806 0)
(17.6228 -0.00011239 0)
(17.6658 -0.000119305 0)
(17.7098 -0.000126224 0)
(17.7545 -0.000133298 0)
(17.8 -0.000140465 0)
(17.8461 -0.000147504 0)
(17.8927 -0.000154194 0)
(17.9396 -0.000160572 0)
(17.9866 -0.000167471 0)
(18.0341 -0.00017575 0)
(18.0822 -0.000185307 0)
(18.1311 -0.000195796 0)
(18.1809 -0.000207926 0)
(18.2321 -0.000222627 0)
(18.2851 -0.000239859 0)
(18.3401 -0.000259282 0)
(18.3973 -0.00028091 0)
(18.4571 -0.000304962 0)
(18.5195 -0.00033198 0)
(18.5849 -0.000361993 0)
(18.6536 -0.000396094 0)
(18.726 -0.000437301 0)
(18.8032 -0.000489209 0)
(18.8866 -0.000551856 0)
(18.977 -0.000627091 0)
(19.0762 -0.000719415 0)
(19.1855 -0.000831487 0)
(19.3073 -0.000981941 0)
(19.4467 -0.00114578 0)
(19.5993 -0.00138738 0)
(19.7844 -0.0017423 0)
(20.0047 -0.00177226 0)
(20.1705 -0.00156711 0)
(20.2957 -0.00186376 0)
(20.4529 -0.00259914 0)
(20.6557 -0.00365675 0)
(20.9226 -0.00478128 0)
(21.2323 -0.00599656 0)
(21.6021 -0.00695297 0)
(21.9786 -0.00800562 0)
(22.4132 -0.00870053 0)
(22.8163 -0.00985838 0)
(23.3072 -0.0105744 0)
(23.7301 -0.01224 0)
(24.2975 -0.0133043 0)
(24.7631 -0.0156265 0)
(25.4199 -0.0178101 0)
(26.0096 -0.0200414 0)
(26.6856 -0.0260676 0)
(27.6612 -0.0248638 0)
(28.0492 -0.0401406 0)
(29.9462 -0.0329186 0)
(29.7865 -0.0491633 0)
(32.0407 -0.0543514 0)
(34.051 -0.078162 0)
(31.2857 0.804209 0)
(23.7274 -2.55786 0)
(28.9205 0.0473435 0)
(23.5526 0.00534652 0)
(22.4654 0.00121443 0)
(22.0995 0.000441691 0)
(21.9575 0.0001767 0)
(21.8992 6.93784e-05 0)
(21.8798 1.25507e-05 0)
(21.8835 -2.33431e-05 0)
(21.901 -4.5837e-05 0)
(21.9263 -6.03218e-05 0)
(21.9562 -7.08772e-05 0)
(21.9893 -7.92512e-05 0)
(22.0245 -8.59971e-05 0)
(22.061 -9.14929e-05 0)
(22.0983 -9.64827e-05 0)
(22.1362 -0.000101513 0)
(22.1747 -0.000106875 0)
(22.2139 -0.000113071 0)
(22.2539 -0.000120558 0)
(22.2952 -0.000128633 0)
(22.3375 -0.000136237 0)
(22.3806 -0.000143414 0)
(22.4242 -0.000150864 0)
(22.4686 -0.000158541 0)
(22.5134 -0.00016592 0)
(22.5587 -0.000172857 0)
(22.6041 -0.000179954 0)
(22.6498 -0.000188161 0)
(22.6961 -0.000197527 0)
(22.7429 -0.000207776 0)
(22.7905 -0.000219585 0)
(22.8392 -0.000233221 0)
(22.889 -0.000247564 0)
(22.94 -0.000261956 0)
(22.9918 -0.000276683 0)
(23.0447 -0.000291656 0)
(23.0983 -0.000306461 0)
(23.1527 -0.000320662 0)
(23.2075 -0.000334321 0)
(23.2626 -0.000349036 0)
(23.3183 -0.000366474 0)
(23.375 -0.000386478 0)
(23.4326 -0.000408424 0)
(23.4914 -0.000433711 0)
(23.5518 -0.000464118 0)
(23.6143 -0.000499562 0)
(23.6791 -0.000539416 0)
(23.7466 -0.000583738 0)
(23.8169 -0.00063297 0)
(23.8903 -0.000688185 0)
(23.9673 -0.000749496 0)
(24.048 -0.000818958 0)
(24.1331 -0.000902253 0)
(24.2236 -0.00100646 0)
(24.3211 -0.00113173 0)
(24.4264 -0.00128195 0)
(24.5415 -0.00146522 0)
(24.6678 -0.00168676 0)
(24.8077 -0.00198267 0)
(24.9671 -0.00230301 0)
(25.1407 -0.00277406 0)
(25.3501 -0.00345912 0)
(25.5941 -0.00366982 0)
(25.8091 -0.00349196 0)
(25.9831 -0.00410333 0)
(26.1897 -0.00551039 0)
(26.4404 -0.00754298 0)
(26.7557 -0.00970103 0)
(27.1137 -0.0120341 0)
(27.5366 -0.0138811 0)
(27.9678 -0.0159175 0)
(28.4635 -0.0172658 0)
(28.9276 -0.0194888 0)
(29.486 -0.0208688 0)
(29.9752 -0.0240202 0)
(30.6147 -0.0260938 0)
(31.1555 -0.030376 0)
(31.8853 -0.0347462 0)
(32.5717 -0.0384414 0)
(33.3067 -0.0507549 0)
(34.4307 -0.0467333 0)
(34.8328 -0.0783947 0)
(36.9674 -0.0614677 0)
(36.7591 -0.0955594 0)
(39.464 -0.114704 0)
(40.8697 -0.123329 0)
(40.5207 0.956115 0)
(35.5288 -3.0515 0)
(33.1963 0.0620532 0)
(27.3518 0.00861872 0)
(26.1633 0.00198193 0)
(25.7747 0.000716439 0)
(25.621 0.000290116 0)
(25.5563 0.000115422 0)
(25.5336 2.22342e-05 0)
(25.5362 -3.69358e-05 0)
(25.5541 -7.42927e-05 0)
(25.5806 -9.85172e-05 0)
(25.6125 -0.000116219 0)
(25.648 -0.000130301 0)
(25.6861 -0.000141716 0)
(25.7257 -0.000151094 0)
(25.7664 -0.000159617 0)
(25.808 -0.000168174 0)
(25.8502 -0.000177247 0)
(25.8933 -0.000187613 0)
(25.9375 -0.00020001 0)
(25.9829 -0.000213391 0)
(26.0295 -0.000226113 0)
(26.077 -0.000238196 0)
(26.1253 -0.000250736 0)
(26.1743 -0.000263708 0)
(26.2241 -0.000276308 0)
(26.2744 -0.000288293 0)
(26.3251 -0.000300565 0)
(26.3763 -0.000314596 0)
(26.4281 -0.000330516 0)
(26.4808 -0.000347913 0)
(26.5343 -0.000367812 0)
(26.589 -0.00039065 0)
(26.645 -0.000414736 0)
(26.7023 -0.000439026 0)
(26.7608 -0.000463958 0)
(26.8203 -0.000489432 0)
(26.881 -0.000514847 0)
(26.9425 -0.000539533 0)
(27.0048 -0.00056355 0)
(27.0677 -0.000589287 0)
(27.1314 -0.000619333 0)
(27.1962 -0.000653612 0)
(27.2623 -0.000691253 0)
(27.3298 -0.000734349 0)
(27.3992 -0.000785617 0)
(27.4709 -0.000845066 0)
(27.5452 -0.000911848 0)
(27.6225 -0.000986128 0)
(27.703 -0.00106865 0)
(27.787 -0.00116118 0)
(27.875 -0.00126408 0)
(27.9674 -0.00138048 0)
(28.0646 -0.00151882 0)
(28.1678 -0.00169035 0)
(28.2785 -0.00189599 0)
(28.3976 -0.00214212 0)
(28.5273 -0.00244116 0)
(28.669 -0.00280047 0)
(28.825 -0.00327899 0)
(29.0017 -0.00379528 0)
(29.1932 -0.00455384 0)
(29.4231 -0.00562778 0)
(29.6836 -0.00623647 0)
(29.9484 -0.00639726 0)
(30.175 -0.00750354 0)
(30.4353 -0.00971114 0)
(30.7362 -0.0128838 0)
(31.0991 -0.0162638 0)
(31.5019 -0.019965 0)
(31.9715 -0.0229499 0)
(32.4504 -0.0262675 0)
(32.9983 -0.0285191 0)
(33.5164 -0.0321289 0)
(34.1318 -0.0344453 0)
(34.681 -0.0394644 0)
(35.3784 -0.0429551 0)
(35.9881 -0.0496216 0)
(36.7716 -0.0569938 0)
(37.5435 -0.0623345 0)
(38.32 -0.0828252 0)
(39.5505 -0.0753552 0)
(39.993 -0.12681 0)
(42.2183 -0.100015 0)
(42.085 -0.154504 0)
(44.9982 -0.188681 0)
(45.854 -0.191788 0)
(47.2943 1.03752 0)
(43.9027 -3.5232 0)
(36.6851 0.0785303 0)
(30.485 0.0128927 0)
(29.1631 0.00299263 0)
(28.7374 0.00107486 0)
(28.5652 0.00044172 0)
(28.4903 0.000179355 0)
(28.4622 3.82402e-05 0)
(28.4622 -5.18714e-05 0)
(28.4795 -0.000109258 0)
(28.5068 -0.000146792 0)
(28.5405 -0.000174318 0)
(28.5784 -0.000196278 0)
(28.6193 -0.000214204 0)
(28.6622 -0.000229064 0)
(28.7065 -0.000242577 0)
(28.7519 -0.00025607 0)
(28.7983 -0.000270284 0)
(28.8456 -0.000286311 0)
(28.8942 -0.000305231 0)
(28.9441 -0.000325669 0)
(28.9954 -0.000345316 0)
(29.0478 -0.000364123 0)
(29.101 -0.000383639 0)
(29.1552 -0.000403913 0)
(29.2103 -0.000423838 0)
(29.2661 -0.000443038 0)
(29.3225 -0.000462712 0)
(29.3795 -0.000484931 0)
(29.4374 -0.000509973 0)
(29.4962 -0.000537298 0)
(29.5561 -0.000568296 0)
(29.6174 -0.000603617 0)
(29.6801 -0.00064097 0)
(29.7442 -0.00067887 0)
(29.8097 -0.000717915 0)
(29.8765 -0.000758039 0)
(29.9446 -0.000798452 0)
(30.0139 -0.000838244 0)
(30.0841 -0.000877441 0)
(30.1553 -0.000919221 0)
(30.2276 -0.00096724 0)
(30.3011 -0.0010217 0)
(30.3763 -0.00108158 0)
(30.4531 -0.00114966 0)
(30.5321 -0.00122968 0)
(30.6136 -0.00132191 0)
(30.6981 -0.00142545 0)
(30.7857 -0.00154067 0)
(30.877 -0.00166872 0)
(30.9722 -0.00181232 0)
(31.0718 -0.00197232 0)
(31.1763 -0.0021531 0)
(31.2862 -0.002366 0)
(31.4026 -0.00262728 0)
(31.5269 -0.0029395 0)
(31.6604 -0.00331237 0)
(31.8049 -0.00376371 0)
(31.9623 -0.00430199 0)
(32.1342 -0.0050172 0)
(32.3283 -0.00578613 0)
(32.5371 -0.00691756 0)
(32.787 -0.00846232 0)
(33.0625 -0.00978728 0)
(33.3743 -0.0107623 0)
(33.6523 -0.0126593 0)
(33.9662 -0.0158706 0)
(34.3178 -0.0204117 0)
(34.729 -0.0252577 0)
(35.1768 -0.0306517 0)
(35.6925 -0.0351011 0)
(36.2184 -0.0400997 0)
(36.8168 -0.0436032 0)
(37.3883 -0.0490284 0)
(38.0573 -0.0526615 0)
(38.6666 -0.0600222 0)
(39.4154 -0.0654791 0)
(40.094 -0.0750186 0)
(40.9201 -0.0864034 0)
(41.7727 -0.0936873 0)
(42.5827 -0.124186 0)
(43.8871 -0.113579 0)
(44.3922 -0.186567 0)
(46.617 -0.152429 0)
(46.5708 -0.229547 0)
(49.6698 -0.268729 0)
(49.724 -0.311941 0)
(53.031 1.10796 0)
(48.8095 -3.98001 0)
(39.7474 0.0965982 0)
(33.3272 0.0184239 0)
(31.8375 0.00436852 0)
(31.356 0.00156403 0)
(31.1567 0.000654206 0)
(31.0668 0.000273215 0)
(31.0302 6.66342e-05 0)
(31.0258 -6.59782e-05 0)
(31.0414 -0.000151239 0)
(31.0687 -0.000207535 0)
(31.1037 -0.000248957 0)
(31.1438 -0.00028206 0)
(31.1876 -0.000309249 0)
(31.2339 -0.000331968 0)
(31.2821 -0.000352609 0)
(31.3316 -0.000373075 0)
(31.3824 -0.000394467 0)
(31.4343 -0.000418249 0)
(31.4877 -0.000445922 0)
(31.5425 -0.000475813 0)
(31.5989 -0.00050488 0)
(31.6565 -0.000532926 0)
(31.7151 -0.000562021 0)
(31.7749 -0.000592365 0)
(31.8358 -0.000622538 0)
(31.8976 -0.000651973 0)
(31.9602 -0.000682162 0)
(32.0236 -0.000715841 0)
(32.088 -0.000753538 0)
(32.1536 -0.000794607 0)
(32.2204 -0.000840815 0)
(32.2887 -0.00089307 0)
(32.3586 -0.000948466 0)
(32.4301 -0.00100503 0)
(32.5032 -0.00106351 0)
(32.5778 -0.00112396 0)
(32.6539 -0.00118539 0)
(32.7314 -0.00124665 0)
(32.8103 -0.00130771 0)
(32.8904 -0.00137253 0)
(32.9718 -0.00144593 0)
(33.0547 -0.00152866 0)
(33.1396 -0.00161971 0)
(33.2264 -0.00172255 0)
(33.3157 -0.00184198 0)
(33.4077 -0.00197877 0)
(33.5029 -0.00213215 0)
(33.6017 -0.00230293 0)
(33.7044 -0.0024928 0)
(33.8114 -0.00270567 0)
(33.9233 -0.00294325 0)
(34.0405 -0.00321152 0)
(34.1638 -0.0035247 0)
(34.2939 -0.00390489 0)
(34.4326 -0.00435747 0)
(34.5808 -0.00489636 0)
(34.7407 -0.00554674 0)
(34.9142 -0.0063154 0)
(35.1024 -0.00733505 0)
(35.3139 -0.00842573 0)
(35.5398 -0.0100367 0)
(35.8095 -0.0121563 0)
(36.0993 -0.0146158 0)
(36.4551 -0.0170246 0)
(36.782 -0.0201148 0)
(37.1483 -0.0246101 0)
(37.5512 -0.0308132 0)
(38.0124 -0.0374178 0)
(38.5077 -0.0448779 0)
(39.0713 -0.0511769 0)
(39.6459 -0.0583194 0)
(40.2946 -0.0635143 0)
(40.9206 -0.0712432 0)
(41.6407 -0.0766969 0)
(42.3107 -0.086897 0)
(43.105 -0.0950461 0)
(43.8505 -0.107951 0)
(44.709 -0.124555 0)
(45.6307 -0.134254 0)
(46.46 -0.176501 0)
(47.8059 -0.163435 0)
(48.3359 -0.260485 0)
(50.5359 -0.215883 0)
(50.3915 -0.333185 0)
(53.76 -0.33109 0)
(52.5888 -0.51025 0)
(57.8836 1.20324 0)
(51.9047 -4.45234 0)
(42.5102 0.115748 0)
(36.0373 0.025428 0)
(34.3505 0.00626379 0)
(33.7931 0.00224923 0)
(33.5572 0.000960153 0)
(33.4469 0.000415168 0)
(33.3985 0.000117533 0)
(33.3875 -7.43522e-05 0)
(33.3998 -0.000198962 0)
(33.4263 -0.000282084 0)
(33.462 -0.000343414 0)
(33.504 -0.000392439 0)
(33.5506 -0.000432896 0)
(33.6004 -0.000466914 0)
(33.6525 -0.000497749 0)
(33.7064 -0.000528059 0)
(33.7619 -0.000559457 0)
(33.8189 -0.00059385 0)
(33.8773 -0.00063325 0)
(33.9375 -0.000675765 0)
(33.9994 -0.000717569 0)
(34.0627 -0.000758228 0)
(34.1273 -0.000800379 0)
(34.1931 -0.000844482 0)
(34.2602 -0.000888813 0)
(34.3285 -0.000932568 0)
(34.3979 -0.000977489 0)
(34.4683 -0.00102703 0)
(34.5398 -0.00108209 0)
(34.6127 -0.00114198 0)
(34.687 -0.00120884 0)
(34.763 -0.00128387 0)
(34.8408 -0.00136358 0)
(34.9203 -0.00144546 0)
(35.0016 -0.00153043 0)
(35.0847 -0.00161869 0)
(35.1694 -0.00170914 0)
(35.2559 -0.00180039 0)
(35.3441 -0.00189234 0)
(35.4337 -0.00198965 0)
(35.5251 -0.0020984 0)
(35.6182 -0.00222018 0)
(35.7135 -0.00235427 0)
(35.8112 -0.00250482 0)
(35.9115 -0.0026777 0)
(36.015 -0.00287437 0)
(36.1219 -0.00309457 0)
(36.2326 -0.00333979 0)
(36.3476 -0.00361251 0)
(36.4674 -0.00391808 0)
(36.5924 -0.00425955 0)
(36.7232 -0.00464495 0)
(36.8607 -0.00509145 0)
(37.0055 -0.00562751 0)
(37.1593 -0.00626284 0)
(37.3233 -0.00701639 0)
(37.4993 -0.00792385 0)
(37.6896 -0.0089855 0)
(37.8947 -0.0103918 0)
(38.1243 -0.0118864 0)
(38.3676 -0.0141056 0)
(38.6574 -0.016931 0)
(38.9614 -0.0210968 0)
(39.359 -0.0257262 0)
(39.7325 -0.0305137 0)
(40.1503 -0.0366759 0)
(40.6056 -0.0449499 0)
(41.1202 -0.0537095 0)
(41.668 -0.0636946 0)
(42.2835 -0.0723301 0)
(42.9103 -0.0821844 0)
(43.6086 -0.0896787 0)
(44.2867 -0.100357 0)
(45.0496 -0.10837 0)
(45.7681 -0.122068 0)
(46.5882 -0.13383 0)
(47.3702 -0.150592 0)
(48.2214 -0.173575 0)
(49.1512 -0.185475 0)
(49.919 -0.240914 0)
(51.2103 -0.223064 0)
(51.603 -0.347396 0)
(53.6478 -0.28096 0)
(53.1949 -0.458014 0)
(56.5187 -0.361681 0)
(54.2979 -0.752052 0)
(60.7111 1.31217 0)
(53.8282 -4.87854 0)
(44.9919 0.135167 0)
(38.6773 0.0340976 0)
(36.7764 0.00888599 0)
(36.1216 0.00322635 0)
(35.8389 0.00140821 0)
(35.7024 0.000632902 0)
(35.6385 0.000206991 0)
(35.6184 -6.84032e-05 0)
(35.6258 -0.000249047 0)
(35.6503 -0.000370857 0)
(35.6861 -0.000460968 0)
(35.7296 -0.000532922 0)
(35.7788 -0.000592484 0)
(35.8321 -0.000642807 0)
(35.8883 -0.000688269 0)
(35.9469 -0.000732506 0)
(36.0074 -0.000777868 0)
(36.0697 -0.000826805 0)
(36.1338 -0.000881952 0)
(36.1998 -0.000941316 0)
(36.2677 -0.0010003 0)
(36.3372 -0.00105812 0)
(36.4083 -0.00111799 0)
(36.4808 -0.00118078 0)
(36.5548 -0.00124451 0)
(36.6302 -0.0013081 0)
(36.7069 -0.00137347 0)
(36.7849 -0.00144483 0)
(36.8643 -0.00152356 0)
(36.9453 -0.00160903 0)
(37.0278 -0.00170375 0)
(37.1122 -0.00180928 0)
(37.1986 -0.00192158 0)
(37.287 -0.00203757 0)
(37.3774 -0.00215837 0)
(37.4697 -0.00228439 0)
(37.564 -0.00241448 0)
(37.6604 -0.00254707 0)
(37.7587 -0.00268201 0)
(37.8589 -0.00282462 0)
(37.9611 -0.00298219 0)
(38.0655 -0.00315741 0)
(38.1723 -0.00335029 0)
(38.2819 -0.00356579 0)
(38.3945 -0.00381071 0)
(38.5104 -0.00408744 0)
(38.6302 -0.0043966 0)
(38.7541 -0.00474081 0)
(38.8827 -0.00512362 0)
(39.0164 -0.00555223 0)
(39.1559 -0.00603149 0)
(39.3016 -0.00657227 0)
(39.4545 -0.00719481 0)
(39.6154 -0.00793411 0)
(39.7857 -0.00880587 0)
(39.9666 -0.00983473 0)
(40.16 -0.0110717 0)
(40.3684 -0.0125037 0)
(40.5918 -0.0143967 0)
(40.8404 -0.0163934 0)
(41.1023 -0.0193753 0)
(41.413 -0.0230505 0)
(41.7324 -0.0297353 0)
(42.1712 -0.0376729 0)
(42.5901 -0.0448001 0)
(43.0581 -0.0531559 0)
(43.566 -0.0641558 0)
(44.1346 -0.0757808 0)
(44.7347 -0.0890556 0)
(45.3961 -0.100756 0)
(46.0602 -0.114 0)
(46.7791 -0.12431 0)
(47.4626 -0.138241 0)
(48.2033 -0.148856 0)
(48.8789 -0.16565 0)
(49.6167 -0.180453 0)
(50.2921 -0.199537 0)
(50.9865 -0.227861 0)
(51.7354 -0.238752 0)
(52.2741 -0.306371 0)
(53.299 -0.278243 0)
(53.4368 -0.430783 0)
(55.1139 -0.329525 0)
(54.4474 -0.585783 0)
(57.4202 -0.349794 0)
(54.9971 -1.03798 0)
(61.3289 1.44159 0)
(55.2632 -5.2791 0)
(47.1518 0.153719 0)
(41.2565 0.0445194 0)
(39.1476 0.0125013 0)
(38.3745 0.00463311 0)
(38.0339 0.00206969 0)
(37.865 0.000967781 0)
(37.7816 0.00035974 0)
(37.7498 -3.40088e-05 0)
(37.7505 -0.000294757 0)
(37.7719 -0.000472566 0)
(37.8069 -0.000604496 0)
(37.8515 -0.000709643 0)
(37.9031 -0.000796817 0)
(37.9598 -0.000870725 0)
(38.0202 -0.000937236 0)
(38.0837 -0.00100125 0)
(38.1496 -0.00106615 0)
(38.2177 -0.0011351 0)
(38.2879 -0.00121149 0)
(38.3603 -0.00129338 0)
(38.4348 -0.00137551 0)
(38.5112 -0.00145664 0)
(38.5894 -0.00154054 0)
(38.6693 -0.00162861 0)
(38.7509 -0.00171875 0)
(38.8342 -0.00180961 0)
(38.9191 -0.00190321 0)
(39.0056 -0.00200445 0)
(39.0937 -0.00211534 0)
(39.1836 -0.00223545 0)
(39.2754 -0.00236768 0)
(39.3692 -0.00251397 0)
(39.4653 -0.00266984 0)
(39.5635 -0.00283168 0)
(39.664 -0.00300074 0)
(39.7668 -0.00317778 0)
(39.8718 -0.00336172 0)
(39.9791 -0.00355091 0)
(40.0888 -0.00374524 0)
(40.2008 -0.00395066 0)
(40.3152 -0.00417557 0)
(40.4322 -0.0044239 0)
(40.552 -0.0046969 0)
(40.6749 -0.00500068 0)
(40.8012 -0.00534299 0)
(40.9314 -0.00572715 0)
(41.0657 -0.00615505 0)
(41.2045 -0.00663098 0)
(41.3485 -0.00716019 0)
(41.498 -0.00775211 0)
(41.6536 -0.00841408 0)
(41.8161 -0.00916086 0)
(41.9863 -0.0100166 0)
(42.1651 -0.0110227 0)
(42.3538 -0.0122025 0)
(42.5537 -0.0135868 0)
(42.7664 -0.0152488 0)
(42.9948 -0.0171551 0)
(43.2385 -0.0196663 0)
(43.5074 -0.0222967 0)
(43.7899 -0.02625 0)
(44.1217 -0.0308931 0)
(44.4582 -0.0411215 0)
(44.9363 -0.0541478 0)
(45.3943 -0.0647513 0)
(45.8997 -0.0760433 0)
(46.4374 -0.0904378 0)
(47.0201 -0.105353 0)
(47.6091 -0.121918 0)
(48.223 -0.136041 0)
(48.799 -0.15147 0)
(49.3849 -0.162788 0)
(49.8988 -0.177883 0)
(50.4342 -0.188644 0)
(50.8847 -0.206153 0)
(51.3783 -0.221464 0)
(51.8079 -0.240715 0)
(52.2583 -0.272271 0)
(52.7661 -0.280885 0)
(53.1081 -0.359325 0)
(53.8914 -0.321339 0)
(53.9436 -0.50379 0)
(55.3598 -0.368042 0)
(54.7575 -0.715622 0)
(57.4334 -0.333098 0)
(55.327 -1.34033 0)
(61.0104 1.502 0)
(56.6162 -5.57754 0)
(48.9077 0.170064 0)
(43.7446 0.0565149 0)
(41.4728 0.0174106 0)
(40.5652 0.00665708 0)
(40.1553 0.00304358 0)
(39.9475 0.00147787 0)
(39.8407 0.000611339 0)
(39.7945 5.00424e-05 0)
(39.7867 -0.000324864 0)
(39.8037 -0.000583437 0)
(39.8372 -0.000776034 0)
(39.8824 -0.00092923 0)
(39.9361 -0.0010563 0)
(39.9961 -0.00116429 0)
(40.061 -0.00126112 0)
(40.1297 -0.00135327 0)
(40.2014 -0.00144562 0)
(40.2758 -0.00154223 0)
(40.3528 -0.00164743 0)
(40.4322 -0.00175958 0)
(40.5141 -0.00187294 0)
(40.5982 -0.00198578 0)
(40.6844 -0.0021023 0)
(40.7725 -0.00222459 0)
(40.8627 -0.00235064 0)
(40.9549 -0.0024789 0)
(41.0489 -0.00261143 0)
(41.145 -0.00275373 0)
(41.2429 -0.0029085 0)
(41.343 -0.00307569 0)
(41.4452 -0.00325869 0)
(41.5497 -0.00345985 0)
(41.6567 -0.00367439 0)
(41.7663 -0.00389827 0)
(41.8784 -0.00413283 0)
(41.9931 -0.00437926 0)
(42.1104 -0.00463681 0)
(42.2303 -0.00490395 0)
(42.3531 -0.00518082 0)
(42.4786 -0.00547417 0)
(42.6069 -0.00579345 0)
(42.7384 -0.00614385 0)
(42.8732 -0.00652833 0)
(43.0115 -0.00695486 0)
(43.1537 -0.00743269 0)
(43.3002 -0.00796633 0)
(43.4514 -0.00855931 0)
(43.6075 -0.00921839 0)
(43.7692 -0.00995159 0)
(43.9369 -0.0107717 0)
(44.1111 -0.0116895 0)
(44.2925 -0.0127253 0)
(44.4818 -0.0139087 0)
(44.68 -0.0152882 0)
(44.8882 -0.0168959 0)
(45.1075 -0.0187672 0)
(45.3393 -0.0210011 0)
(45.5855 -0.0235407 0)
(45.8464 -0.0268442 0)
(46.1286 -0.0302847 0)
(46.4246 -0.0354266 0)
(46.7599 -0.0411127 0)
(47.1004 -0.0553653 0)
(47.5668 -0.0746848 0)
(47.99 -0.0891793 0)
(48.4272 -0.102762 0)
(48.8542 -0.119056 0)
(49.2772 -0.135054 0)
(49.6612 -0.152222 0)
(50.0343 -0.165857 0)
(50.3546 -0.180752 0)
(50.6829 -0.190852 0)
(50.9589 -0.205596 0)
(51.2757 -0.215861 0)
(51.5431 -0.234177 0)
(51.8769 -0.251003 0)
(52.179 -0.271977 0)
(52.5298 -0.309052 0)
(52.9437 -0.318293 0)
(53.2544 -0.410819 0)
(53.9401 -0.366428 0)
(54.048 -0.584242 0)
(55.311 -0.413707 0)
(54.8772 -0.86459 0)
(57.3035 -0.331603 0)
(55.6191 -1.65916 0)
(60.5294 1.44852 0)
(57.7535 -5.70747 0)
(50.1321 0.182883 0)
(46.0673 0.0694575 0)
(43.7403 0.0238642 0)
(42.6962 0.00953396 0)
(42.2071 0.00445745 0)
(41.9543 0.00223616 0)
(41.8201 0.00100629 0)
(41.7569 0.000210433 0)
(41.7391 -0.000325049 0)
(41.7505 -0.000698481 0)
(41.7818 -0.00097808 0)
(41.8272 -0.00120025 0)
(41.883 -0.00138455 0)
(41.9465 -0.00154151 0)
(42.0161 -0.00168188 0)
(42.0903 -0.00181416 0)
(42.1684 -0.00194521 0)
(42.2499 -0.00208037 0)
(42.3344 -0.0022251 0)
(42.4217 -0.00237832 0)
(42.5119 -0.00253418 0)
(42.6047 -0.00269056 0)
(42.7 -0.00285192 0)
(42.7976 -0.0030211 0)
(42.8976 -0.00319647 0)
(43 -0.00337654 0)
(43.1046 -0.00356344 0)
(43.2116 -0.00376323 0)
(43.321 -0.00397926 0)
(43.4328 -0.00421211 0)
(43.5472 -0.00446581 0)
(43.6643 -0.00474329 0)
(43.7842 -0.00503981 0)
(43.907 -0.00535123 0)
(44.0328 -0.00567909 0)
(44.1616 -0.00602521 0)
(44.2934 -0.00638962 0)
(44.4284 -0.00677149 0)
(44.5665 -0.0071718 0)
(44.7078 -0.00759864 0)
(44.8524 -0.00806295 0)
(45.0005 -0.00857121 0)
(45.1522 -0.00912793 0)
(45.3077 -0.00974306 0)
(45.4671 -0.0104275 0)
(45.6307 -0.0111865 0)
(45.7986 -0.0120239 0)
(45.971 -0.0129469 0)
(46.1477 -0.0139637 0)
(46.3289 -0.0150878 0)
(46.5144 -0.0163302 0)
(46.7042 -0.0177121 0)
(46.8981 -0.0192651 0)
(47.096 -0.0210397 0)
(47.2979 -0.0230722 0)
(47.5036 -0.0253968 0)
(47.713 -0.0281296 0)
(47.9265 -0.0311979 0)
(48.1441 -0.0351201 0)
(48.3676 -0.0391974 0)
(48.5961 -0.0452242 0)
(48.8374 -0.0517208 0)
(49.0871 -0.0687798 0)
(49.3695 -0.0918374 0)
(49.5956 -0.108061 0)
(49.8158 -0.121833 0)
(50.0176 -0.13785 0)
(50.2186 -0.153023 0)
(50.3987 -0.169627 0)
(50.5934 -0.18268 0)
(50.7696 -0.198098 0)
(50.9819 -0.208917 0)
(51.1738 -0.225904 0)
(51.4232 -0.238292 0)
(51.6474 -0.260348 0)
(51.944 -0.280808 0)
(52.2248 -0.306401 0)
(52.5596 -0.350182 0)
(52.9546 -0.363278 0)
(53.2762 -0.47003 0)
(53.9158 -0.423535 0)
(54.0902 -0.675628 0)
(55.2365 -0.475867 0)
(54.9697 -1.02884 0)
(57.1573 -0.367139 0)
(55.8817 -1.96152 0)
(60.0655 1.22526 0)
(58.5134 -5.60293 0)
(50.6181 0.190685 0)
(48.0815 0.0822181 0)
(45.9083 0.0318856 0)
(44.7588 0.0135269 0)
(44.1875 0.00647272 0)
(43.8856 0.00332723 0)
(43.7211 0.0015909 0)
(43.639 0.000471751 0)
(43.6097 -0.000285157 0)
(43.6149 -0.000818298 0)
(43.6437 -0.0012201 0)
(43.6893 -0.00153968 0)
(43.7474 -0.00180502 0)
(43.8149 -0.00203162 0)
(43.8897 -0.00223422 0)
(43.9703 -0.0024239 0)
(44.0557 -0.00261009 0)
(44.1452 -0.00279989 0)
(44.2384 -0.00300028 0)
(44.3351 -0.00321098 0)
(44.435 -0.00342656 0)
(44.5381 -0.00364496 0)
(44.6441 -0.00387091 0)
(44.753 -0.00410801 0)
(44.8648 -0.00435536 0)
(44.9793 -0.00461209 0)
(45.0965 -0.00488082 0)
(45.2166 -0.00516836 0)
(45.3395 -0.00547876 0)
(45.4652 -0.00581341 0)
(45.5939 -0.00617704 0)
(45.7255 -0.00657308 0)
(45.8602 -0.00699678 0)
(45.9978 -0.00744371 0)
(46.1382 -0.00791481 0)
(46.2813 -0.00841124 0)
(46.4269 -0.00893223 0)
(46.5747 -0.00947589 0)
(46.7243 -0.0100419 0)
(46.8752 -0.0106373 0)
(47.0269 -0.0112718 0)
(47.179 -0.0119501 0)
(47.3306 -0.0126747 0)
(47.4812 -0.0134537 0)
(47.6299 -0.0142965 0)
(47.776 -0.0152068 0)
(47.9186 -0.0161867 0)
(48.057 -0.0172423 0)
(48.1906 -0.0183814 0)
(48.319 -0.0196175 0)
(48.4418 -0.0209629 0)
(48.5589 -0.0224406 0)
(48.6707 -0.0240868 0)
(48.7777 -0.0259548 0)