/*--------------------------------*- C++ -*----------------------------------*\
| =========                 |                                                 |
| \\      /  F ield         | OpenFOAM: The Open Source CFD Toolbox           |
|  \\    /   O peration     | Version:  5.x                                   |
|   \\  /    A nd           | Web:      www.OpenFOAM.org                      |
|    \\/     M anipulation  |                                                 |
\*---------------------------------------------------------------------------*/
FoamFile
{
    version     2.0;
    format      ascii;
    class       volVectorField;
    location    "0";
    object      U;
}
// * * * * * * * * * * * * * * * * * * * * * * * * * * * * * * * * * * * * * //

dimensions      [0 1 -1 0 0 0 0];

internalField   nonuniform List<vector> 
130824
(
(44.2 -1.88151e-08 0)
(44.2 -1.82624e-07 0)
(44.2 -4.86422e-07 0)
(44.2 -8.18823e-07 0)
(44.2 -1.18188e-06 0)
(44.2 -1.57753e-06 0)
(44.2 -2.00744e-06 0)
(44.2 -2.47298e-06 0)
(44.2 -2.97506e-06 0)
(44.2 -3.51415e-06 0)
(44.2 -4.08998e-06 0)
(44.2 -4.70142e-06 0)
(44.2 -5.34637e-06 0)
(44.2 -6.02163e-06 0)
(44.2 -6.72265e-06 0)
(44.2 -7.44341e-06 0)
(44.2 -8.17582e-06 0)
(44.2 -8.91023e-06 0)
(44.2 -9.63427e-06 0)
(44.2 -1.03342e-05 0)
(44.2 -1.09929e-05 0)
(44.2 -1.15933e-05 0)
(44.2 -1.21139e-05 0)
(44.2 -1.25368e-05 0)
(44.2 -1.28368e-05 0)
(44.2 -1.2997e-05 0)
(44.2 -1.29889e-05 0)
(44.2 -1.27945e-05 0)
(44.2 -1.2379e-05 0)
(44.2 -1.17175e-05 0)
(44.2 -1.07717e-05 0)
(44.2 -9.51437e-06 0)
(44.2 -7.98199e-06 0)
(44.2 -6.2216e-06 0)
(44.2 -4.29334e-06 0)
(44.2 -2.2202e-06 0)
(44.2 3.13694e-08 0)
(44.2 2.53652e-06 0)
(44.2 5.16749e-06 0)
(44.2 7.59856e-06 0)
(44.2 9.64751e-06 0)
(44.2 1.1292e-05 0)
(44.2 1.25175e-05 0)
(44.2 1.33259e-05 0)
(44.2 1.38012e-05 0)
(44.2 1.40455e-05 0)
(44.2 1.41489e-05 0)
(44.2 1.4166e-05 0)
(44.2 1.41018e-05 0)
(44.2 1.39288e-05 0)
(44.2 1.36304e-05 0)
(44.2 1.32145e-05 0)
(44.2 1.26914e-05 0)
(44.2 1.20832e-05 0)
(44.2 1.14068e-05 0)
(44.2 1.06848e-05 0)
(44.2 9.93305e-06 0)
(44.2 9.16942e-06 0)
(44.2 8.40632e-06 0)
(44.2 7.65602e-06 0)
(44.2 6.9268e-06 0)
(44.2 6.22589e-06 0)
(44.2 5.5579e-06 0)
(44.2 4.9262e-06 0)
(44.2 4.3325e-06 0)
(44.2 3.77757e-06 0)
(44.2 3.26122e-06 0)
(44.2 2.78277e-06 0)
(44.2 2.34089e-06 0)
(44.2 1.93383e-06 0)
(44.2 1.55978e-06 0)
(44.2 1.21683e-06 0)
(44.2 9.02853e-07 0)
(44.2 6.15691e-07 0)
(44.2 3.53347e-07 0)
(44.2 1.1408e-07 0)
(44.2 -4.43678e-08 0)
(44.2 -2.52136e-07 0)
(44.2 -5.93595e-07 0)
(44.2 -9.65353e-07 0)
(44.2 -1.36899e-06 0)
(44.2 -1.80567e-06 0)
(44.2 -2.2761e-06 0)
(44.2 -2.78063e-06 0)
(44.2 -3.31956e-06 0)
(44.2 -3.89243e-06 0)
(44.2 -4.49791e-06 0)
(44.2 -5.1343e-06 0)
(44.2 -5.79906e-06 0)
(44.2 -6.48871e-06 0)
(44.2 -7.19855e-06 0)
(44.2 -7.92233e-06 0)
(44.2 -8.65169e-06 0)
(44.2 -9.377e-06 0)
(44.2 -1.00855e-05 0)
(44.2 -1.07639e-05 0)
(44.2 -1.13949e-05 0)
(44.2 -1.19632e-05 0)
(44.2 -1.24476e-05 0)
(44.2 -1.28332e-05 0)
(44.2 -1.30953e-05 0)
(44.2 -1.32207e-05 0)
(44.2 -1.318e-05 0)
(44.2 -1.29561e-05 0)
(44.2 -1.25111e-05 0)
(44.2 -1.18154e-05 0)
(44.2 -1.08367e-05 0)
(44.2 -9.53677e-06 0)
(44.2 -7.96688e-06 0)
(44.2 -6.20356e-06 0)
(44.2 -4.29439e-06 0)
(44.2 -2.2337e-06 0)
(44.2 1.90854e-08 0)
(44.2 2.53591e-06 0)
(44.2 5.1845e-06 0)
(44.2 7.63463e-06 0)
(44.2 9.69954e-06 0)
(44.2 1.13499e-05 0)
(44.2 1.25749e-05 0)
(44.2 1.33726e-05 0)
(44.2 1.3832e-05 0)
(44.2 1.40883e-05 0)
(44.2 1.42322e-05 0)
(44.2 1.42919e-05 0)
(44.2 1.4265e-05 0)
(44.2 1.41253e-05 0)
(44.2 1.38582e-05 0)
(44.2 1.34719e-05 0)
(44.2 1.29763e-05 0)
(44.2 1.23932e-05 0)
(44.2 1.17385e-05 0)
(44.2 1.10342e-05 0)
(44.2 1.02954e-05 0)
(44.2 9.53946e-06 0)
(44.2 8.77833e-06 0)
(44.2 8.02417e-06 0)
(44.2 7.28512e-06 0)
(44.2 6.56873e-06 0)
(44.2 5.87978e-06 0)
(44.2 5.22221e-06 0)
(44.2 4.59834e-06 0)
(44.2 4.00962e-06 0)
(44.2 3.45646e-06 0)
(44.2 2.93872e-06 0)
(44.2 2.45573e-06 0)
(44.2 2.0065e-06 0)
(44.2 1.58966e-06 0)
(44.2 1.20352e-06 0)
(44.2 8.46413e-07 0)
(44.2 5.16922e-07 0)
(44.2 2.13528e-07 0)
(44.2 3.40866e-08 0)
(44.2 -5.56178e-08 0)
(44.2 -2.88464e-07 0)
(44.2 -6.583e-07 0)
(44.2 -1.05961e-06 0)
(44.2 -1.49321e-06 0)
(44.2 -1.95987e-06 0)
(44.2 -2.46014e-06 0)
(44.2 -2.99359e-06 0)
(44.2 -3.55964e-06 0)
(44.2 -4.15742e-06 0)
(44.2 -4.7853e-06 0)
(44.2 -5.44108e-06 0)
(44.2 -6.12183e-06 0)
(44.2 -6.82388e-06 0)
(44.2 -7.54184e-06 0)
(44.2 -8.26921e-06 0)
(44.2 -8.99714e-06 0)
(44.2 -9.71586e-06 0)
(44.2 -1.04121e-05 0)
(44.2 -1.10734e-05 0)
(44.2 -1.16821e-05 0)
(44.2 -1.22251e-05 0)
(44.2 -1.2681e-05 0)
(44.2 -1.3038e-05 0)
(44.2 -1.32714e-05 0)
(44.2 -1.33707e-05 0)
(44.2 -1.33066e-05 0)
(44.2 -1.30612e-05 0)
(44.2 -1.25938e-05 0)
(44.2 -1.18658e-05 0)
(44.2 -1.08575e-05 0)
(44.2 -9.54282e-06 0)
(44.2 -7.96996e-06 0)
(44.2 -6.20894e-06 0)
(44.2 -4.30505e-06 0)
(44.2 -2.24856e-06 0)
(44.2 5.05918e-09 0)
(44.2 2.52784e-06 0)
(44.2 5.18608e-06 0)
(44.2 7.64786e-06 0)
(44.2 9.72261e-06 0)
(44.2 1.13717e-05 0)
(44.2 1.25906e-05 0)
(44.2 1.33926e-05 0)
(44.2 1.38689e-05 0)
(44.2 1.41477e-05 0)
(44.2 1.43169e-05 0)
(44.2 1.44019e-05 0)
(44.2 1.43984e-05 0)
(44.2 1.42798e-05 0)
(44.2 1.40311e-05 0)
(44.2 1.36604e-05 0)
(44.2 1.31763e-05 0)
(44.2 1.2601e-05 0)
(44.2 1.19495e-05 0)
(44.2 1.12445e-05 0)
(44.2 1.05011e-05 0)
(44.2 9.73749e-06 0)
(44.2 8.96601e-06 0)
(44.2 8.19969e-06 0)
(44.2 7.44719e-06 0)
(44.2 6.71677e-06 0)
(44.2 6.01366e-06 0)
(44.2 5.34215e-06 0)
(44.2 4.70493e-06 0)
(44.2 4.10366e-06 0)
(44.2 3.53889e-06 0)
(44.2 3.01067e-06 0)
(44.2 2.5183e-06 0)
(44.2 2.06074e-06 0)
(44.2 1.63662e-06 0)
(44.2 1.2443e-06 0)
(44.2 8.82093e-07 0)
(44.2 5.48384e-07 0)
(44.2 2.41211e-07 0)
(44.2 4.69887e-08 0)
(44.2 -6.09043e-08 0)
(44.2 -3.0146e-07 0)
(44.2 -6.76442e-07 0)
(44.2 -1.08356e-06 0)
(44.2 -1.52386e-06 0)
(44.2 -1.99798e-06 0)
(44.2 -2.50624e-06 0)
(44.2 -3.04859e-06 0)
(44.2 -3.62441e-06 0)
(44.2 -4.23256e-06 0)
(44.2 -4.8713e-06 0)
(44.2 -5.53836e-06 0)
(44.2 -6.23063e-06 0)
(44.2 -6.94385e-06 0)
(44.2 -7.67235e-06 0)
(44.2 -8.40921e-06 0)
(44.2 -9.14502e-06 0)
(44.2 -9.86945e-06 0)
(44.2 -1.05687e-05 0)
(44.2 -1.12299e-05 0)
(44.2 -1.18355e-05 0)
(44.2 -1.23719e-05 0)
(44.2 -1.28183e-05 0)
(44.2 -1.31633e-05 0)
(44.2 -1.33836e-05 0)
(44.2 -1.34687e-05 0)
(44.2 -1.33914e-05 0)
(44.2 -1.31329e-05 0)
(44.2 -1.26537e-05 0)
(44.2 -1.19096e-05 0)
(44.2 -1.08813e-05 0)
(44.2 -9.55529e-06 0)
(44.2 -7.98007e-06 0)
(44.2 -6.22134e-06 0)
(44.2 -4.32106e-06 0)
(44.2 -2.26733e-06 0)
(44.2 -1.35736e-08 0)
(44.2 2.51334e-06 0)
(44.2 5.17895e-06 0)
(44.2 7.64964e-06 0)
(44.2 9.73341e-06 0)
(44.2 1.13872e-05 0)
(44.2 1.26055e-05 0)
(44.2 1.34151e-05 0)
(44.2 1.39077e-05 0)
(44.2 1.42053e-05 0)
(44.2 1.43952e-05 0)
(44.2 1.45003e-05 0)
(44.2 1.45165e-05 0)
(44.2 1.44158e-05 0)
(44.2 1.41832e-05 0)
(44.2 1.38263e-05 0)
(44.2 1.33538e-05 0)
(44.2 1.27876e-05 0)
(44.2 1.21425e-05 0)
(44.2 1.14416e-05 0)
(44.2 1.06994e-05 0)
(44.2 9.93457e-06 0)
(44.2 9.15934e-06 0)
(44.2 8.38691e-06 0)
(44.2 7.6261e-06 0)
(44.2 6.88542e-06 0)
(44.2 6.17042e-06 0)
(44.2 5.48587e-06 0)
(44.2 4.83463e-06 0)
(44.2 4.21878e-06 0)
(44.2 3.6391e-06 0)
(44.2 3.09587e-06 0)
(44.2 2.58889e-06 0)
(44.2 2.11711e-06 0)
(44.2 1.67922e-06 0)
(44.2 1.2739e-06 0)
(44.2 8.99412e-07 0)
(44.2 5.53976e-07 0)
(44.2 2.36002e-07 0)
(44.2 4.18347e-08 0)
(44.2 -6.3418e-08 0)
(44.2 -3.09393e-07 0)
(44.2 -6.90346e-07 0)
(44.2 -1.10363e-06 0)
(44.2 -1.55036e-06 0)
(44.2 -2.03143e-06 0)
(44.2 -2.54715e-06 0)
(44.2 -3.0972e-06 0)
(44.2 -3.68076e-06 0)
(44.2 -4.29651e-06 0)
(44.2 -4.94279e-06 0)
(44.2 -5.61709e-06 0)
(44.2 -6.31593e-06 0)
(44.2 -7.03511e-06 0)
(44.2 -7.76865e-06 0)
(44.2 -8.50951e-06 0)
(44.2 -9.24805e-06 0)
(44.2 -9.97399e-06 0)
(44.2 -1.06734e-05 0)
(44.2 -1.13336e-05 0)
(44.2 -1.19365e-05 0)
(44.2 -1.2469e-05 0)
(44.2 -1.29102e-05 0)
(44.2 -1.32488e-05 0)
(44.2 -1.34619e-05 0)
(44.2 -1.3539e-05 0)
(44.2 -1.34536e-05 0)
(44.2 -1.31864e-05 0)
(44.2 -1.26991e-05 0)
(44.2 -1.19456e-05 0)
(44.2 -1.09067e-05 0)
(44.2 -9.57333e-06 0)
(44.2 -7.99548e-06 0)
(44.2 -6.23785e-06 0)
(44.2 -4.34035e-06 0)
(44.2 -2.28916e-06 0)
(44.2 -3.60076e-08 0)
(44.2 2.49374e-06 0)
(44.2 5.16522e-06 0)
(44.2 7.64313e-06 0)
(44.2 9.73465e-06 0)
(44.2 1.13954e-05 0)
(44.2 1.26182e-05 0)
(44.2 1.34358e-05 0)
(44.2 1.39415e-05 0)
(44.2 1.42536e-05 0)
(44.2 1.44589e-05 0)
(44.2 1.45781e-05 0)
(44.2 1.4607e-05 0)
(44.2 1.45165e-05 0)
(44.2 1.4291e-05 0)
(44.2 1.39381e-05 0)
(44.2 1.34662e-05 0)
(44.2 1.28976e-05 0)
(44.2 1.22475e-05 0)
(44.2 1.15393e-05 0)
(44.2 1.07883e-05 0)
(44.2 1.00138e-05 0)
(44.2 9.2285e-06 0)
(44.2 8.44615e-06 0)
(44.2 7.67604e-06 0)
(44.2 6.92699e-06 0)
(44.2 6.20467e-06 0)
(44.2 5.51392e-06 0)
(44.2 4.85765e-06 0)
(44.2 4.23789e-06 0)
(44.2 3.6553e-06 0)
(44.2 3.11004e-06 0)
(44.2 2.60162e-06 0)
(44.2 2.12906e-06 0)
(44.2 1.69079e-06 0)
(44.2 1.28543e-06 0)
(44.2 9.11386e-07 0)
(44.2 5.66524e-07 0)
(44.2 2.49108e-07 0)
(44.2 4.85306e-08 0)
(44.2 -6.3421e-08 0)
(44.2 -3.09856e-07 0)
(44.2 -6.91709e-07 0)
(44.2 -1.10608e-06 0)
(44.2 -1.55422e-06 0)
(44.2 -2.03683e-06 0)
(44.2 -2.55445e-06 0)
(44.2 -3.10683e-06 0)
(44.2 -3.69326e-06 0)
(44.2 -4.31268e-06 0)
(44.2 -4.96314e-06 0)
(44.2 -5.64213e-06 0)
(44.2 -6.34623e-06 0)
(44.2 -7.07103e-06 0)
(44.2 -7.81047e-06 0)
(44.2 -8.5573e-06 0)
(44.2 -9.30165e-06 0)
(44.2 -1.00329e-05 0)
(44.2 -1.07367e-05 0)
(44.2 -1.14001e-05 0)
(44.2 -1.20047e-05 0)
(44.2 -1.25375e-05 0)
(44.2 -1.29774e-05 0)
(44.2 -1.33133e-05 0)
(44.2 -1.35224e-05 0)
(44.2 -1.35949e-05 0)
(44.2 -1.35044e-05 0)
(44.2 -1.32321e-05 0)
(44.2 -1.27392e-05 0)
(44.2 -1.19795e-05 0)
(44.2 -1.09342e-05 0)
(44.2 -9.5956e-06 0)
(44.2 -8.01531e-06 0)
(44.2 -6.25782e-06 0)
(44.2 -4.36257e-06 0)
(44.2 -2.31384e-06 0)
(44.2 -6.19722e-08 0)
(44.2 2.46941e-06 0)
(44.2 5.14546e-06 0)
(44.2 7.6294e-06 0)
(44.2 9.72782e-06 0)
(44.2 1.13956e-05 0)
(44.2 1.26252e-05 0)
(44.2 1.34508e-05 0)
(44.2 1.39667e-05 0)
(44.2 1.42896e-05 0)
(44.2 1.45062e-05 0)
(44.2 1.46358e-05 0)
(44.2 1.46742e-05 0)
(44.2 1.45914e-05 0)
(44.2 1.43717e-05 0)
(44.2 1.4023e-05 0)
(44.2 1.35535e-05 0)
(44.2 1.29861e-05 0)
(44.2 1.23361e-05 0)
(44.2 1.16274e-05 0)
(44.2 1.0875e-05 0)
(44.2 1.00985e-05 0)
(44.2 9.31045e-06 0)
(44.2 8.52475e-06 0)
(44.2 7.75068e-06 0)
(44.2 6.99704e-06 0)
(44.2 6.26955e-06 0)
(44.2 5.57323e-06 0)
(44.2 4.91109e-06 0)
(44.2 4.28505e-06 0)
(44.2 3.69609e-06 0)
(44.2 3.14444e-06 0)
(44.2 2.62964e-06 0)
(44.2 2.15072e-06 0)
(44.2 1.7064e-06 0)
(44.2 1.29535e-06 0)
(44.2 9.15712e-07 0)
(44.2 5.65682e-07 0)
(44.2 2.43449e-07 0)
(44.2 4.45136e-08 0)
(44.2 -6.51638e-08 0)
(44.2 -3.13825e-07 0)
(44.2 -6.96908e-07 0)
(44.2 -1.11277e-06 0)
(44.2 -1.56264e-06 0)
(44.2 -2.04732e-06 0)
(44.2 -2.56714e-06 0)
(44.2 -3.12168e-06 0)
(44.2 -3.71033e-06 0)
(44.2 -4.33216e-06 0)
(44.2 -4.98513e-06 0)
(44.2 -5.6668e-06 0)
(44.2 -6.37374e-06 0)
(44.2 -7.10148e-06 0)
(44.2 -7.84385e-06 0)
(44.2 -8.59371e-06 0)
(44.2 -9.34099e-06 0)
(44.2 -1.0075e-05 0)
(44.2 -1.07814e-05 0)
(44.2 -1.14472e-05 0)
(44.2 -1.20537e-05 0)
(44.2 -1.25879e-05 0)
(44.2 -1.30284e-05 0)
(44.2 -1.33643e-05 0)
(44.2 -1.35725e-05 0)
(44.2 -1.36434e-05 0)
(44.2 -1.35505e-05 0)
(44.2 -1.3275e-05 0)
(44.2 -1.27785e-05 0)
(44.2 -1.20142e-05 0)
(44.2 -1.0964e-05 0)
(44.2 -9.62124e-06 0)
(44.2 -8.03836e-06 0)
(44.2 -6.28078e-06 0)
(44.2 -4.38749e-06 0)
(44.2 -2.34153e-06 0)
(44.2 -9.15538e-08 0)
(44.2 2.44049e-06 0)
(44.2 5.11996e-06 0)
(44.2 7.60903e-06 0)
(44.2 9.71371e-06 0)
(44.2 1.13884e-05 0)
(44.2 1.26248e-05 0)
(44.2 1.34576e-05 0)
(44.2 1.39812e-05 0)
(44.2 1.43116e-05 0)
(44.2 1.45355e-05 0)
(44.2 1.46715e-05 0)
(44.2 1.47153e-05 0)
(44.2 1.46361e-05 0)
(44.2 1.44182e-05 0)
(44.2 1.40694e-05 0)
(44.2 1.35981e-05 0)
(44.2 1.30276e-05 0)
(44.2 1.23733e-05 0)
(44.2 1.16594e-05 0)
(44.2 1.09015e-05 0)
(44.2 1.01194e-05 0)
(44.2 9.32592e-06 0)
(44.2 8.53536e-06 0)
(44.2 7.75699e-06 0)
(44.2 6.99981e-06 0)
(44.2 6.26965e-06 0)
(44.2 5.57139e-06 0)
(44.2 4.908e-06 0)
(44.2 4.28147e-06 0)
(44.2 3.69253e-06 0)
(44.2 3.14144e-06 0)
(44.2 2.62756e-06 0)
(44.2 2.14984e-06 0)
(44.2 1.70688e-06 0)
(44.2 1.29705e-06 0)
(44.2 9.18856e-07 0)
(44.2 5.7028e-07 0)
(44.2 2.49529e-07 0)
(44.2 4.79829e-08 0)
(44.2 -6.38779e-08 0)
(44.2 -3.12253e-07 0)
(44.2 -6.97397e-07 0)
(44.2 -1.11555e-06 0)
(44.2 -1.56777e-06 0)
(44.2 -2.05482e-06 0)
(44.2 -2.57716e-06 0)
(44.2 -3.1345e-06 0)
(44.2 -3.72612e-06 0)
(44.2 -4.35094e-06 0)
(44.2 -5.00699e-06 0)
(44.2 -5.69187e-06 0)
(44.2 -6.40207e-06 0)
(44.2 -7.13307e-06 0)
(44.2 -7.87877e-06 0)
(44.2 -8.63181e-06 0)
(44.2 -9.3821e-06 0)
(44.2 -1.01189e-05 0)
(44.2 -1.08277e-05 0)
(44.2 -1.14953e-05 0)
(44.2 -1.21031e-05 0)
(44.2 -1.2638e-05 0)
(44.2 -1.30786e-05 0)
(44.2 -1.3414e-05 0)
(44.2 -1.36212e-05 0)
(44.2 -1.36908e-05 0)
(44.2 -1.35962e-05 0)
(44.2 -1.3319e-05 0)
(44.2 -1.28201e-05 0)
(44.2 -1.20525e-05 0)
(44.2 -1.09984e-05 0)
(44.2 -9.65141e-06 0)
(44.2 -8.06564e-06 0)
(44.2 -6.3071e-06 0)
(44.2 -4.41543e-06 0)
(44.2 -2.37212e-06 0)
(44.2 -1.24553e-07 0)
(44.2 2.40728e-06 0)
(44.2 5.08924e-06 0)
(44.2 7.58276e-06 0)
(44.2 9.69329e-06 0)
(44.2 1.13744e-05 0)
(44.2 1.26171e-05 0)
(44.2 1.34555e-05 0)
(44.2 1.39842e-05 0)
(44.2 1.43194e-05 0)
(44.2 1.4548e-05 0)
(44.2 1.46884e-05 0)
(44.2 1.47358e-05 0)
(44.2 1.46594e-05 0)
(44.2 1.44432e-05 0)
(44.2 1.40955e-05 0)
(44.2 1.36246e-05 0)
(44.2 1.30542e-05 0)
(44.2 1.23997e-05 0)
(44.2 1.16857e-05 0)
(44.2 1.09276e-05 0)
(44.2 1.01453e-05 0)
(44.2 9.35148e-06 0)
(44.2 8.56044e-06 0)
(44.2 7.78136e-06 0)
(44.2 7.02316e-06 0)
(44.2 6.29171e-06 0)
(44.2 5.59195e-06 0)
(44.2 4.92679e-06 0)
(44.2 4.29831e-06 0)
(44.2 3.70735e-06 0)
(44.2 3.15397e-06 0)
(44.2 2.63763e-06 0)
(44.2 2.15748e-06 0)
(44.2 1.71221e-06 0)
(44.2 1.3003e-06 0)
(44.2 9.20039e-07 0)
(44.2 5.69476e-07 0)
(44.2 2.46814e-07 0)
(44.2 4.61269e-08 0)
(44.2 -6.65048e-08 0)
(44.2 -3.17248e-07 0)
(44.2 -7.01938e-07 0)
(44.2 -1.11974e-06 0)
(44.2 -1.57201e-06 0)
(44.2 -2.05938e-06 0)
(44.2 -2.582e-06 0)
(44.2 -3.13982e-06 0)
(44.2 -3.73212e-06 0)
(44.2 -4.35791e-06 0)
(44.2 -5.01534e-06 0)
(44.2 -5.70181e-06 0)
(44.2 -6.41381e-06 0)
(44.2 -7.14698e-06 0)
(44.2 -7.8951e-06 0)
(44.2 -8.65088e-06 0)
(44.2 -9.4041e-06 0)
(44.2 -1.01441e-05 0)
(44.2 -1.08561e-05 0)
(44.2 -1.15271e-05 0)
(44.2 -1.21381e-05 0)
(44.2 -1.26762e-05 0)
(44.2 -1.31195e-05 0)
(44.2 -1.34573e-05 0)
(44.2 -1.36662e-05 0)
(44.2 -1.37369e-05 0)
(44.2 -1.36427e-05 0)
(44.2 -1.33646e-05 0)
(44.2 -1.28643e-05 0)
(44.2 -1.20938e-05 0)
(44.2 -1.1036e-05 0)
(44.2 -9.68488e-06 0)
(44.2 -8.09596e-06 0)
(44.2 -6.33663e-06 0)
(44.2 -4.44641e-06 0)
(44.2 -2.40611e-06 0)
(44.2 -1.61272e-07 0)
(44.2 2.36983e-06 0)
(44.2 5.05361e-06 0)
(44.2 7.55098e-06 0)
(44.2 9.66674e-06 0)
(44.2 1.13536e-05 0)
(44.2 1.26016e-05 0)
(44.2 1.34445e-05 0)
(44.2 1.39767e-05 0)
(44.2 1.43147e-05 0)
(44.2 1.45459e-05 0)
(44.2 1.46885e-05 0)
(44.2 1.47379e-05 0)
(44.2 1.46628e-05 0)
(44.2 1.44471e-05 0)
(44.2 1.4099e-05 0)
(44.2 1.3627e-05 0)
(44.2 1.3055e-05 0)
(44.2 1.23984e-05 0)
(44.2 1.16821e-05 0)
(44.2 1.09216e-05 0)
(44.2 1.0137e-05 0)
(44.2 9.34129e-06 0)
(44.2 8.54866e-06 0)
(44.2 7.76848e-06 0)
(44.2 7.00974e-06 0)
(44.2 6.2782e-06 0)
(44.2 5.57882e-06 0)
(44.2 4.91442e-06 0)
(44.2 4.28695e-06 0)
(44.2 3.69725e-06 0)
(44.2 3.14543e-06 0)
(44.2 2.63087e-06 0)
(44.2 2.15261e-06 0)
(44.2 1.70929e-06 0)
(44.2 1.29919e-06 0)
(44.2 9.20719e-07 0)
(44.2 5.71934e-07 0)
(44.2 2.50822e-07 0)
(44.2 4.84948e-08 0)
(44.2 -6.40595e-08 0)
(44.2 -3.14297e-07 0)
(44.2 -7.02865e-07 0)
(44.2 -1.1245e-06 0)
(44.2 -1.58027e-06 0)
(44.2 -2.07115e-06 0)
(44.2 -2.59763e-06 0)
(44.2 -3.15935e-06 0)
(44.2 -3.75558e-06 0)
(44.2 -4.38514e-06 0)
(44.2 -5.0461e-06 0)
(44.2 -5.73597e-06 0)
(44.2 -6.45123e-06 0)
(44.2 -7.18736e-06 0)
(44.2 -7.93811e-06 0)
(44.2 -8.69614e-06 0)
(44.2 -9.45131e-06 0)
(44.2 -1.01929e-05 0)
(44.2 -1.09061e-05 0)
(44.2 -1.15779e-05 0)
(44.2 -1.21893e-05 0)
(44.2 -1.27275e-05 0)
(44.2 -1.31706e-05 0)
(44.2 -1.35083e-05 0)
(44.2 -1.37168e-05 0)
(44.2 -1.37873e-05 0)
(44.2 -1.36926e-05 0)
(44.2 -1.34142e-05 0)
(44.2 -1.29127e-05 0)
(44.2 -1.21399e-05 0)
(44.2 -1.10787e-05 0)
(44.2 -9.7232e-06 0)
(44.2 -8.13072e-06 0)
(44.2 -6.3696e-06 0)
(44.2 -4.48059e-06 0)
(44.2 -2.44299e-06 0)
(44.2 -2.01204e-07 0)
(44.2 2.32864e-06 0)
(44.2 5.01369e-06 0)
(44.2 7.51447e-06 0)
(44.2 9.63509e-06 0)
(44.2 1.1327e-05 0)
(44.2 1.25795e-05 0)
(44.2 1.34252e-05 0)
(44.2 1.39593e-05 0)
(44.2 1.42986e-05 0)
(44.2 1.45314e-05 0)
(44.2 1.46758e-05 0)
(44.2 1.47269e-05 0)
(44.2 1.46534e-05 0)
(44.2 1.44389e-05 0)
(44.2 1.40918e-05 0)
(44.2 1.36206e-05 0)
(44.2 1.30495e-05 0)
(44.2 1.23938e-05 0)
(44.2 1.16786e-05 0)
(44.2 1.09193e-05 0)
(44.2 1.0136e-05 0)
(44.2 9.3414e-06 0)
(44.2 8.54983e-06 0)
(44.2 7.77054e-06 0)
(44.2 7.01246e-06 0)
(44.2 6.28133e-06 0)
(44.2 5.58205e-06 0)
(44.2 4.91766e-06 0)
(44.2 4.29007e-06 0)
(44.2 3.69999e-06 0)
(44.2 3.1477e-06 0)
(44.2 2.6326e-06 0)
(44.2 2.15377e-06 0)
(44.2 1.70976e-06 0)
(44.2 1.29904e-06 0)
(44.2 9.19984e-07 0)
(44.2 5.70458e-07 0)
(44.2 2.48806e-07 0)
(44.2 4.74128e-08 0)
(44.2 -6.73114e-08 0)
(44.2 -3.20005e-07 0)
(44.2 -7.0684e-07 0)
(44.2 -1.12688e-06 0)
(44.2 -1.58132e-06 0)
(44.2 -2.07097e-06 0)
(44.2 -2.59641e-06 0)
(44.2 -3.15745e-06 0)
(44.2 -3.75343e-06 0)
(44.2 -4.38315e-06 0)
(44.2 -5.0448e-06 0)
(44.2 -5.73597e-06 0)
(44.2 -6.45309e-06 0)
(44.2 -7.19162e-06 0)
(44.2 -7.94532e-06 0)
(44.2 -8.70691e-06 0)
(44.2 -9.46603e-06 0)
(44.2 -1.02119e-05 0)
(44.2 -1.09296e-05 0)
(44.2 -1.16062e-05 0)
(44.2 -1.22223e-05 0)
(44.2 -1.27651e-05 0)
(44.2 -1.32124e-05 0)
(44.2 -1.35537e-05 0)
(44.2 -1.37653e-05 0)
(44.2 -1.38381e-05 0)
(44.2 -1.37449e-05 0)
(44.2 -1.34667e-05 0)
(44.2 -1.29645e-05 0)
(44.2 -1.21892e-05 0)
(44.2 -1.11243e-05 0)
(44.2 -9.76437e-06 0)
(44.2 -8.16814e-06 0)
(44.2 -6.40576e-06 0)
(44.2 -4.51787e-06 0)
(44.2 -2.48341e-06 0)
(44.2 -2.44802e-07 0)
(44.2 2.28355e-06 0)
(44.2 4.96951e-06 0)
(44.2 7.47325e-06 0)
(44.2 9.59815e-06 0)
(44.2 1.12945e-05 0)
(44.2 1.25506e-05 0)
(44.2 1.33987e-05 0)
(44.2 1.39338e-05 0)
(44.2 1.42737e-05 0)
(44.2 1.45072e-05 0)
(44.2 1.46523e-05 0)
(44.2 1.47047e-05 0)
(44.2 1.46324e-05 0)
(44.2 1.44188e-05 0)
(44.2 1.40724e-05 0)
(44.2 1.36016e-05 0)
(44.2 1.30305e-05 0)
(44.2 1.23748e-05 0)
(44.2 1.16595e-05 0)
(44.2 1.09001e-05 0)
(44.2 1.01167e-05 0)
(44.2 9.32229e-06 0)
(44.2 8.53111e-06 0)
(44.2 7.75239e-06 0)
(44.2 6.99512e-06 0)
(44.2 6.265e-06 0)
(44.2 5.56703e-06 0)
(44.2 4.90401e-06 0)
(44.2 4.27788e-06 0)
(44.2 3.68948e-06 0)
(44.2 3.13899e-06 0)
(44.2 2.62564e-06 0)
(44.2 2.14839e-06 0)
(44.2 1.70592e-06 0)
(44.2 1.29662e-06 0)
(44.2 9.18938e-07 0)
(44.2 5.70963e-07 0)
(44.2 2.50743e-07 0)
(44.2 4.86794e-08 0)
(44.2 -6.40238e-08 0)
(44.2 -3.15758e-07 0)
(44.2 -7.07419e-07 0)
(44.2 -1.13249e-06 0)
(44.2 -1.59238e-06 0)
(44.2 -2.08771e-06 0)
(44.2 -2.61864e-06 0)
(44.2 -3.18498e-06 0)
(44.2 -3.78613e-06 0)
(44.2 -4.42078e-06 0)
(44.2 -5.08693e-06 0)
(44.2 -5.78205e-06 0)
(44.2 -6.50264e-06 0)
(44.2 -7.24417e-06 0)
(44.2 -8.00034e-06 0)
(44.2 -8.76372e-06 0)
(44.2 -9.52403e-06 0)
(44.2 -1.02707e-05 0)
(44.2 -1.09887e-05 0)
(44.2 -1.16651e-05 0)
(44.2 -1.22808e-05 0)
(44.2 -1.28232e-05 0)
(44.2 -1.32698e-05 0)
(44.2 -1.36109e-05 0)
(44.2 -1.38222e-05 0)
(44.2 -1.38951e-05 0)
(44.2 -1.38019e-05 0)
(44.2 -1.35239e-05 0)
(44.2 -1.30209e-05 0)
(44.2 -1.22436e-05 0)
(44.2 -1.11752e-05 0)
(44.2 -9.81047e-06 0)
(44.2 -8.21008e-06 0)
(44.2 -6.44525e-06 0)
(44.2 -4.55822e-06 0)
(44.2 -2.52644e-06 0)
(44.2 -2.91251e-07 0)
(44.2 2.23526e-06 0)
(44.2 4.92179e-06 0)
(44.2 7.42821e-06 0)
(44.2 9.5571e-06 0)
(44.2 1.12573e-05 0)
(44.2 1.25162e-05 0)
(44.2 1.33654e-05 0)
(44.2 1.39006e-05 0)
(44.2 1.42403e-05 0)
(44.2 1.44741e-05 0)
(44.2 1.46204e-05 0)
(44.2 1.46742e-05 0)
(44.2 1.46036e-05 0)
(44.2 1.43917e-05 0)
(44.2 1.40469e-05 0)
(44.2 1.35777e-05 0)
(44.2 1.30083e-05 0)
(44.2 1.23543e-05 0)
(44.2 1.16407e-05 0)
(44.2 1.0883e-05 0)
(44.2 1.01015e-05 0)
(44.2 9.30887e-06 0)
(44.2 8.51937e-06 0)
(44.2 7.74216e-06 0)
(44.2 6.98619e-06 0)
(44.2 6.25734e-06 0)
(44.2 5.56038e-06 0)
(44.2 4.89816e-06 0)
(44.2 4.27275e-06 0)
(44.2 3.68498e-06 0)
(44.2 3.13491e-06 0)
(44.2 2.62195e-06 0)
(44.2 2.14516e-06 0)
(44.2 1.70309e-06 0)
(44.2 1.2942e-06 0)
(44.2 9.16842e-07 0)
(44.2 5.69152e-07 0)
(44.2 2.49137e-07 0)
(44.2 4.78891e-08 0)
(44.2 -6.8264e-08 0)
(44.2 -3.22972e-07 0)
(44.2 -7.12372e-07 0)
(44.2 -1.13518e-06 0)
(44.2 -1.59252e-06 0)
(44.2 -2.0854e-06 0)
(44.2 -2.61422e-06 0)
(44.2 -3.17893e-06 0)
(44.2 -3.77892e-06 0)
(44.2 -4.41303e-06 0)
(44.2 -5.0793e-06 0)
(44.2 -5.7754e-06 0)
(44.2 -6.49785e-06 0)
(44.2 -7.24207e-06 0)
(44.2 -8.00163e-06 0)
(44.2 -8.76924e-06 0)
(44.2 -9.53444e-06 0)
(44.2 -1.02865e-05 0)
(44.2 -1.10103e-05 0)
(44.2 -1.16928e-05 0)
(44.2 -1.23145e-05 0)
(44.2 -1.28626e-05 0)
(44.2 -1.33145e-05 0)
(44.2 -1.36603e-05 0)
(44.2 -1.38756e-05 0)
(44.2 -1.39517e-05 0)
(44.2 -1.38607e-05 0)
(44.2 -1.35836e-05 0)
(44.2 -1.30804e-05 0)
(44.2 -1.23006e-05 0)
(44.2 -1.12285e-05 0)
(44.2 -9.85893e-06 0)
(44.2 -8.25427e-06 0)
(44.2 -6.4878e-06 0)
(44.2 -4.60159e-06 0)
(44.2 -2.57299e-06 0)
(44.2 -3.41238e-07 0)
(44.2 2.18334e-06 0)
(44.2 4.87023e-06 0)
(44.2 7.379e-06 0)
(44.2 9.51137e-06 0)
(44.2 1.12151e-05 0)
(44.2 1.24764e-05 0)
(44.2 1.33267e-05 0)
(44.2 1.38616e-05 0)
(44.2 1.42007e-05 0)
(44.2 1.44344e-05 0)
(44.2 1.45811e-05 0)
(44.2 1.46363e-05 0)
(44.2 1.45673e-05 0)
(44.2 1.43571e-05 0)
(44.2 1.4014e-05 0)
(44.2 1.35463e-05 0)
(44.2 1.29784e-05 0)
(44.2 1.23258e-05 0)
(44.2 1.16137e-05 0)
(44.2 1.08575e-05 0)
(44.2 1.00774e-05 0)
(44.2 9.2862e-06 0)
(44.2 8.4982e-06 0)
(44.2 7.7226e-06 0)
(44.2 6.96834e-06 0)
(44.2 6.24118e-06 0)
(44.2 5.54597e-06 0)
(44.2 4.88556e-06 0)
(44.2 4.26191e-06 0)
(44.2 3.67574e-06 0)
(44.2 3.12727e-06 0)
(44.2 2.61578e-06 0)
(44.2 2.14035e-06 0)
(44.2 1.69961e-06 0)
(44.2 1.29196e-06 0)
(44.2 9.15657e-07 0)
(44.2 5.68744e-07 0)
(44.2 2.49671e-07 0)
(44.2 4.84755e-08 0)
(44.2 -6.42083e-08 0)
(44.2 -3.17903e-07 0)
(44.2 -7.13421e-07 0)
(44.2 -1.14253e-06 0)
(44.2 -1.60645e-06 0)
(44.2 -2.1061e-06 0)
(44.2 -2.64182e-06 0)
(44.2 -3.21328e-06 0)
(44.2 -3.81958e-06 0)
(44.2 -4.45966e-06 0)
(44.2 -5.13136e-06 0)
(44.2 -5.832e-06 0)
(44.2 -6.55817e-06 0)
(44.2 -7.30539e-06 0)
(44.2 -8.06725e-06 0)
(44.2 -8.83635e-06 0)
(44.2 -9.60226e-06 0)
(44.2 -1.03544e-05 0)
(44.2 -1.10776e-05 0)
(44.2 -1.17592e-05 0)
(44.2 -1.23798e-05 0)
(44.2 -1.29269e-05 0)
(44.2 -1.33778e-05 0)
(44.2 -1.37232e-05 0)
(44.2 -1.39382e-05 0)
(44.2 -1.40147e-05 0)
(44.2 -1.39242e-05 0)
(44.2 -1.36478e-05 0)
(44.2 -1.31442e-05 0)
(44.2 -1.23628e-05 0)
(44.2 -1.1287e-05 0)
(44.2 -9.91238e-06 0)
(44.2 -8.30303e-06 0)
(44.2 -6.53352e-06 0)
(44.2 -4.64787e-06 0)
(44.2 -2.62188e-06 0)
(44.2 -3.93734e-07 0)
(44.2 2.12866e-06 0)
(44.2 4.81569e-06 0)
(44.2 7.32663e-06 0)
(44.2 9.46232e-06 0)
(44.2 1.11689e-05 0)
(44.2 1.24321e-05 0)
(44.2 1.32821e-05 0)
(44.2 1.38162e-05 0)
(44.2 1.41543e-05 0)
(44.2 1.43878e-05 0)
(44.2 1.45357e-05 0)
(44.2 1.45925e-05 0)
(44.2 1.45256e-05 0)
(44.2 1.43175e-05 0)
(44.2 1.39766e-05 0)
(44.2 1.3511e-05 0)
(44.2 1.29453e-05 0)
(44.2 1.22948e-05 0)
(44.2 1.15848e-05 0)
(44.2 1.08306e-05 0)
(44.2 1.00525e-05 0)
(44.2 9.26334e-06 0)
(44.2 8.47727e-06 0)
(44.2 7.7035e-06 0)
(44.2 6.951e-06 0)
(44.2 6.22547e-06 0)
(44.2 5.5318e-06 0)
(44.2 4.87284e-06 0)
(44.2 4.25052e-06 0)
(44.2 3.66572e-06 0)
(44.2 3.11855e-06 0)
(44.2 2.60832e-06 0)
(44.2 2.13402e-06 0)
(44.2 1.69437e-06 0)
(44.2 1.28781e-06 0)
(44.2 9.12515e-07 0)
(44.2 5.66644e-07 0)
(44.2 2.48385e-07 0)
(44.2 4.79635e-08 0)
(44.2 -6.94397e-08 0)
(44.2 -3.26594e-07 0)
(44.2 -7.18312e-07 0)
(44.2 -1.14355e-06 0)
(44.2 -1.60388e-06 0)
(44.2 -2.09996e-06 0)
(44.2 -2.63222e-06 0)
(44.2 -3.20067e-06 0)
(44.2 -3.80468e-06 0)
(44.2 -4.44328e-06 0)
(44.2 -5.11451e-06 0)
(44.2 -5.81592e-06 0)
(44.2 -6.54388e-06 0)
(44.2 -7.29396e-06 0)
(44.2 -8.05974e-06 0)
(44.2 -8.83381e-06 0)
(44.2 -9.6055e-06 0)
(44.2 -1.03642e-05 0)
(44.2 -1.10946e-05 0)
(44.2 -1.17837e-05 0)
(44.2 -1.24116e-05 0)
(44.2 -1.29659e-05 0)
(44.2 -1.34235e-05 0)
(44.2 -1.3775e-05 0)
(44.2 -1.39952e-05 0)
(44.2 -1.40759e-05 0)
(44.2 -1.39887e-05 0)
(44.2 -1.3714e-05 0)
(44.2 -1.32108e-05 0)
(44.2 -1.24271e-05 0)
(44.2 -1.13476e-05 0)
(44.2 -9.96781e-06 0)
(44.2 -8.35374e-06 0)
(44.2 -6.58225e-06 0)
(44.2 -4.69713e-06 0)
(44.2 -2.67428e-06 0)
(44.2 -4.49696e-07 0)
(44.2 2.0705e-06 0)
(44.2 4.75754e-06 0)
(44.2 7.2704e-06 0)
(44.2 9.40901e-06 0)
(44.2 1.11185e-05 0)
(44.2 1.23831e-05 0)
(44.2 1.32335e-05 0)
(44.2 1.37664e-05 0)
(44.2 1.41033e-05 0)
(44.2 1.43364e-05 0)
(44.2 1.44845e-05 0)
(44.2 1.45431e-05 0)
(44.2 1.44783e-05 0)
(44.2 1.42727e-05 0)
(44.2 1.39343e-05 0)
(44.2 1.34712e-05 0)
(44.2 1.2908e-05 0)
(44.2 1.226e-05 0)
(44.2 1.15526e-05 0)
(44.2 1.0801e-05 0)
(44.2 1.00255e-05 0)
(44.2 9.23883e-06 0)
(44.2 8.45527e-06 0)
(44.2 7.68394e-06 0)
(44.2 6.93382e-06 0)
(44.2 6.21059e-06 0)
(44.2 5.51908e-06 0)
(44.2 4.86207e-06 0)
(44.2 4.24155e-06 0)
(44.2 3.65824e-06 0)
(44.2 3.11238e-06 0)
(44.2 2.60341e-06 0)
(44.2 2.13033e-06 0)
(44.2 1.69161e-06 0)
(44.2 1.28574e-06 0)
(44.2 9.11115e-07 0)
(44.2 5.65812e-07 0)
(44.2 2.48155e-07 0)
(44.2 4.80186e-08 0)
(44.2 -6.45387e-08 0)
(44.2 -3.20183e-07 0)
(44.2 -7.19094e-07 0)
(44.2 -1.15217e-06 0)
(44.2 -1.62041e-06 0)
(44.2 -2.12457e-06 0)
(44.2 -2.66503e-06 0)
(44.2 -3.2414e-06 0)
(44.2 -3.85295e-06 0)
(44.2 -4.4983e-06 0)
(44.2 -5.17555e-06 0)
(44.2 -5.88206e-06 0)
(44.2 -6.6141e-06 0)
(44.2 -7.36728e-06 0)
(44.2 -8.13505e-06 0)
(44.2 -8.91008e-06 0)
(44.2 -9.68194e-06 0)
(44.2 -1.044e-05 0)
(44.2 -1.11691e-05 0)
(44.2 -1.18565e-05 0)
(44.2 -1.24827e-05 0)
(44.2 -1.30355e-05 0)
(44.2 -1.34919e-05 0)
(44.2 -1.38428e-05 0)
(44.2 -1.4063e-05 0)
(44.2 -1.41446e-05 0)
(44.2 -1.40582e-05 0)
(44.2 -1.37847e-05 0)
(44.2 -1.32816e-05 0)
(44.2 -1.24967e-05 0)
(44.2 -1.14136e-05 0)
(44.2 -1.00284e-05 0)
(44.2 -8.40918e-06 0)
(44.2 -6.63409e-06 0)
(44.2 -4.7492e-06 0)
(44.2 -2.72879e-06 0)
(44.2 -5.07898e-07 0)
(44.2 2.00991e-06 0)
(44.2 4.6968e-06 0)
(44.2 7.21149e-06 0)
(44.2 9.35298e-06 0)
(44.2 1.10647e-05 0)
(44.2 1.23304e-05 0)
(44.2 1.31797e-05 0)
(44.2 1.37109e-05 0)
(44.2 1.40464e-05 0)
(44.2 1.42791e-05 0)
(44.2 1.44286e-05 0)
(44.2 1.44891e-05 0)
(44.2 1.44268e-05 0)
(44.2 1.42237e-05 0)
(44.2 1.3888e-05 0)
(44.2 1.34274e-05 0)
(44.2 1.28668e-05 0)
(44.2 1.22211e-05 0)
(44.2 1.15159e-05 0)
(44.2 1.07663e-05 0)
(44.2 9.99288e-06 0)
(44.2 9.20826e-06 0)
(44.2 8.42668e-06 0)
(44.2 7.65732e-06 0)
(44.2 6.90914e-06 0)
(44.2 6.18779e-06 0)
(44.2 5.49818e-06 0)
(44.2 4.84313e-06 0)
(44.2 4.22452e-06 0)
(44.2 3.64318e-06 0)
(44.2 3.09933e-06 0)
(44.2 2.59233e-06 0)
(44.2 2.12101e-06 0)
(44.2 1.68402e-06 0)
(44.2 1.27994e-06 0)
(44.2 9.06929e-07 0)
(44.2 5.63279e-07 0)
(44.2 2.47219e-07 0)
(44.2 4.79084e-08 0)
(44.2 -7.05604e-08 0)
(44.2 -3.29794e-07 0)
(44.2 -7.237e-07 0)
(44.2 -1.15151e-06 0)
(44.2 -1.61468e-06 0)
(44.2 -2.11403e-06 0)
(44.2 -2.6498e-06 0)
(44.2 -3.22209e-06 0)
(44.2 -3.83042e-06 0)
(44.2 -4.47356e-06 0)
(44.2 -5.14977e-06 0)
(44.2 -5.85663e-06 0)
(44.2 -6.59044e-06 0)
(44.2 -7.34675e-06 0)
(44.2 -8.11902e-06 0)
(44.2 -8.89989e-06 0)
(44.2 -9.67863e-06 0)
(44.2 -1.04446e-05 0)
(44.2 -1.11822e-05 0)
(44.2 -1.18787e-05 0)
(44.2 -1.25138e-05 0)
(44.2 -1.30753e-05 0)
(44.2 -1.35398e-05 0)
(44.2 -1.3898e-05 0)
(44.2 -1.41244e-05 0)
(44.2 -1.42111e-05 0)
(44.2 -1.41288e-05 0)
(44.2 -1.38576e-05 0)
(44.2 -1.33554e-05 0)
(44.2 -1.25683e-05 0)
(44.2 -1.14815e-05 0)
(44.2 -1.00909e-05 0)
(44.2 -8.46643e-06 0)
(44.2 -6.68896e-06 0)
(44.2 -4.80424e-06 0)
(44.2 -2.78686e-06 0)
(44.2 -5.69566e-07 0)
(44.2 1.9459e-06 0)
(44.2 4.63259e-06 0)
(44.2 7.14892e-06 0)
(44.2 9.29296e-06 0)
(44.2 1.10071e-05 0)
(44.2 1.22736e-05 0)
(44.2 1.31227e-05 0)
(44.2 1.36522e-05 0)
(44.2 1.39859e-05 0)
(44.2 1.42182e-05 0)
(44.2 1.4368e-05 0)
(44.2 1.44305e-05 0)
(44.2 1.4371e-05 0)
(44.2 1.4171e-05 0)
(44.2 1.38386e-05 0)
(44.2 1.33813e-05 0)
(44.2 1.28241e-05 0)
(44.2 1.21819e-05 0)
(44.2 1.14802e-05 0)
(44.2 1.07343e-05 0)
(44.2 9.96443e-06 0)
(44.2 9.18323e-06 0)
(44.2 8.40499e-06 0)
(44.2 7.63869e-06 0)
(44.2 6.8934e-06 0)
(44.2 6.17473e-06 0)
(44.2 5.48746e-06 0)
(44.2 4.83443e-06 0)
(44.2 4.21761e-06 0)
(44.2 3.63782e-06 0)
(44.2 3.09513e-06 0)
(44.2 2.58895e-06 0)
(44.2 2.11855e-06 0)
(44.2 1.68222e-06 0)
(44.2 1.27846e-06 0)
(44.2 9.05804e-07 0)
(44.2 5.62418e-07 0)
(44.2 2.46292e-07 0)
(44.2 4.73771e-08 0)
(44.2 -6.48885e-08 0)
(44.2 -3.22635e-07 0)
(44.2 -7.25403e-07 0)
(44.2 -1.16236e-06 0)
(44.2 -1.6347e-06 0)
(44.2 -2.14337e-06 0)
(44.2 -2.68852e-06 0)
(44.2 -3.27002e-06 0)
(44.2 -3.88692e-06 0)
(44.2 -4.5379e-06 0)
(44.2 -5.22095e-06 0)
(44.2 -5.93343e-06 0)
(44.2 -6.67169e-06 0)
(44.2 -7.43115e-06 0)
(44.2 -8.20534e-06 0)
(44.2 -8.98693e-06 0)
(44.2 -9.76536e-06 0)
(44.2 -1.05301e-05 0)
(44.2 -1.12658e-05 0)
(44.2 -1.19599e-05 0)
(44.2 -1.25928e-05 0)
(44.2 -1.31523e-05 0)
(44.2 -1.36152e-05 0)
(44.2 -1.39727e-05 0)
(44.2 -1.41991e-05 0)
(44.2 -1.42867e-05 0)
(44.2 -1.42055e-05 0)
(44.2 -1.39358e-05 0)
(44.2 -1.34339e-05 0)
(44.2 -1.26457e-05 0)
(44.2 -1.15551e-05 0)
(44.2 -1.01587e-05 0)
(44.2 -8.52861e-06 0)
(44.2 -6.74692e-06 0)
(44.2 -4.86203e-06 0)
(44.2 -2.84688e-06 0)
(44.2 -6.33286e-07 0)
(44.2 1.87968e-06 0)
(44.2 4.56607e-06 0)
(44.2 7.08404e-06 0)
(44.2 9.23067e-06 0)
(44.2 1.09466e-05 0)
(44.2 1.22137e-05 0)
(44.2 1.3061e-05 0)
(44.2 1.35883e-05 0)
(44.2 1.39203e-05 0)
(44.2 1.4152e-05 0)
(44.2 1.43034e-05 0)
(44.2 1.43682e-05 0)
(44.2 1.43117e-05 0)
(44.2 1.41147e-05 0)
(44.2 1.37853e-05 0)
(44.2 1.33308e-05 0)
(44.2 1.27763e-05 0)
(44.2 1.21365e-05 0)
(44.2 1.14371e-05 0)
(44.2 1.06932e-05 0)
(44.2 9.92535e-06 0)
(44.2 9.14607e-06 0)
(44.2 8.36978e-06 0)
(44.2 7.60553e-06 0)
(44.2 6.86223e-06 0)
(44.2 6.14568e-06 0)
(44.2 5.46066e-06 0)
(44.2 4.80992e-06 0)
(44.2 4.19546e-06 0)
(44.2 3.61808e-06 0)
(44.2 3.07791e-06 0)
(44.2 2.57431e-06 0)
(44.2 2.10628e-06 0)
(44.2 1.67235e-06 0)