/*--------------------------------*- C++ -*----------------------------------*\
| =========                 |                                                 |
| \\      /  F ield         | OpenFOAM: The Open Source CFD Toolbox           |
|  \\    /   O peration     | Version:  5.x                                   |
|   \\  /    A nd           | Web:      www.OpenFOAM.org                      |
|    \\/     M anipulation  |                                                 |
\*---------------------------------------------------------------------------*/
FoamFile
{
    version     2.0;
    format      ascii;
    class       surfaceScalarField;
    location    "0";
    object      phi;
}
// * * * * * * * * * * * * * * * * * * * * * * * * * * * * * * * * * * * * * //

dimensions      [0 3 -1 0 0 0 0];

internalField   nonuniform List<scalar> 
267700
(
-1.24403e-12
3.66264e-05
-8.61783e-12
4.02891e-05
-1.67018e-11
4.4318e-05
-2.55413e-11
4.87498e-05
-3.51951e-11
5.36248e-05
-4.57078e-11
5.89872e-05
-5.71225e-11
6.4886e-05
-6.94736e-11
7.13746e-05
-8.279e-11
7.8512e-05
-9.70801e-11
8.63632e-05
-1.1234e-10
9.49995e-05
-1.28541e-10
0.000104499
-1.45636e-10
0.000114949
-1.63544e-10
0.000126444
-1.8216e-10
0.000139089
-2.01328e-10
0.000152998
-2.2086e-10
0.000168297
-2.40505e-10
0.000185127
-2.59968e-10
0.00020364
-2.78886e-10
0.000224004
-2.96855e-10
0.000246404
-3.13421e-10
0.000271045
-3.28085e-10
0.000298149
-3.40386e-10
0.000327964
-3.49769e-10
0.000360761
-3.5588e-10
0.000396837
-3.58155e-10
0.00043652
-3.56472e-10
0.000480172
-3.50287e-10
0.00052819
-3.39745e-10
0.000581008
-3.24377e-10
0.000639109
-3.04406e-10
0.00070302
-2.79652e-10
0.000773322
-2.5013e-10
0.000850654
-2.15475e-10
0.00093572
-1.75391e-10
0.00102929
-1.29275e-10
0.00113222
-7.67246e-11
0.00124544
-1.76248e-11
0.00136999
4.06914e-11
0.00136999
9.1286e-11
0.00124544
1.34718e-10
0.00113222
1.7171e-10
0.00102929
2.02814e-10
0.00093572
2.28555e-10
0.000850654
2.4934e-10
0.000773322
2.64935e-10
0.00070302
2.75724e-10
0.000639109
2.81514e-10
0.000581008
2.83053e-10
0.00052819
2.80512e-10
0.000480172
2.75034e-10
0.00043652
2.66706e-10
0.000396837
2.56418e-10
0.000360761
2.44296e-10
0.000327964
2.30996e-10
0.000298149
2.16712e-10
0.000271045
2.0191e-10
0.000246404
1.86804e-10
0.000224004
1.7171e-10
0.00020364
1.56807e-10
0.000185127
1.42295e-10
0.000168297
1.28295e-10
0.000152998
1.14916e-10
0.000139089
1.02224e-10
0.000126444
9.02638e-11
0.000114949
7.90585e-11
0.000104499
6.86058e-11
9.49996e-05
5.89002e-11
8.63632e-05
4.99189e-11
7.8512e-05
4.1636e-11
7.13746e-05
3.401e-11
6.4886e-05
2.70099e-11
5.89872e-05
2.05942e-11
5.36248e-05
1.47255e-11
4.87498e-05
9.36318e-12
4.4318e-05
4.46336e-12
4.02891e-05
3.66264e-05
-2.5195e-12
3.66264e-05
-1.0753e-11
4.02891e-05
-1.97407e-11
4.4318e-05
-2.95097e-11
4.87498e-05
-4.0111e-11
5.36248e-05
-5.15689e-11
5.89872e-05
-6.39142e-11
6.4886e-05
-7.71537e-11
7.13746e-05
-9.12944e-11
7.8512e-05
-1.06324e-10
8.63632e-05
-1.22222e-10
9.49995e-05
-1.38951e-10
0.000104499
-1.56458e-10
0.000114949
-1.74659e-10
0.000126444
-1.93442e-10
0.000139089
-2.12648e-10
0.000152998
-2.32089e-10
0.000168297
-2.51498e-10
0.000185127
-2.70582e-10
0.00020364
-2.8897e-10
0.000224004
-3.06262e-10
0.000246404
-3.22024e-10
0.000271045
-3.35766e-10
0.000298149
-3.47091e-10
0.000327964
-3.55439e-10
0.000360761
-3.60571e-10
0.000396837
-3.61876e-10
0.00043652
-3.59368e-10
0.000480172
-3.52423e-10
0.000528189
-3.41291e-10
0.000581008
-3.25454e-10
0.000639109
-3.05091e-10
0.00070302
-2.80134e-10
0.000773322
-2.50542e-10
0.000850654
-2.15813e-10
0.00093572
-1.75613e-10
0.00102929
-1.29403e-10
0.00113222
-7.67385e-11
0.00124544
-1.74601e-11
0.00136999
4.09942e-11
0.00136999
9.16616e-11
0.00124544
1.35179e-10
0.00113222
1.72305e-10
0.00102929
2.03618e-10
0.00093572
2.29592e-10
0.000850654
2.50773e-10
0.000773322
2.66801e-10
0.00070302
2.7788e-10
0.000639109
2.83962e-10
0.000581008
2.85894e-10
0.000528189
2.83765e-10
0.000480172
2.78754e-10
0.00043652
2.70865e-10
0.000396837
2.61022e-10
0.000360761
2.49293e-10
0.000327964
2.3635e-10
0.000298149
2.22353e-10
0.000271045
2.07775e-10
0.000246404
1.92807e-10
0.000224004
1.77766e-10
0.00020364
1.62823e-10
0.000185127
1.48178e-10
0.000168297
1.33952e-10
0.000152998
1.20261e-10
0.000139089
1.07172e-10
0.000126444
9.47421e-11
0.000114949
8.29994e-11
0.000104499
7.19554e-11
9.49995e-05
6.16067e-11
8.63632e-05
5.19496e-11
7.8512e-05
4.29603e-11
7.13745e-05
3.46127e-11
6.4886e-05
2.68796e-11
5.89872e-05
1.97229e-11
5.36248e-05
1.31229e-11
4.87498e-05
7.0351e-12
4.4318e-05
1.42997e-12
4.02891e-05
3.66264e-05
-2.88178e-12
3.66264e-05
-1.18305e-11
4.02891e-05
-2.15631e-11
4.4318e-05
-3.21103e-11
4.87498e-05
-4.3494e-11
5.36248e-05
-5.57392e-11
5.89872e-05
-6.88501e-11
6.4886e-05
-8.28209e-11
7.13745e-05
-9.76417e-11
7.8512e-05
-1.13289e-10
8.63632e-05
-1.29729e-10
9.49995e-05
-1.46914e-10
0.000104499
-1.64788e-10
0.000114949
-1.83254e-10
0.000126444
-2.02194e-10
0.000139089
-2.21438e-10
0.000152998
-2.40786e-10
0.000168297
-2.5997e-10
0.000185127
-2.78691e-10
0.00020364
-2.96591e-10
0.000224004
-3.13277e-10
0.000246404
-3.28358e-10
0.000271045
-3.41342e-10
0.000298149
-3.51905e-10
0.000327964
-3.59462e-10
0.000360761
-3.63871e-10
0.000396837
-3.64471e-10
0.00043652
-3.61363e-10
0.000480172
-3.5388e-10
0.000528189
-3.4227e-10
0.000581008
-3.26096e-10
0.000639109
-3.05525e-10
0.00070302
-2.80406e-10
0.000773322
-2.50733e-10
0.000850654
-2.15947e-10
0.00093572
-1.75691e-10
0.00102929
-1.29419e-10
0.00113222
-7.66824e-11
0.00124544
-1.73168e-11
0.00136999
4.12174e-11
0.00136999
9.19602e-11
0.00124544
1.35548e-10
0.00113222
1.7277e-10
0.00102929
2.04262e-10
0.00093572
2.30385e-10
0.000850654
2.51747e-10
0.000773322
2.67946e-10
0.00070302
2.79332e-10
0.000639109
2.85715e-10
0.000581008
2.88039e-10
0.000528189
2.86284e-10
0.000480172
2.81675e-10
0.00043652
2.74142e-10
0.000396837
2.64631e-10
0.000360761
2.5316e-10
0.000327964
2.40417e-10
0.000298149
2.26534e-10
0.000271045
2.11996e-10
0.000246404
1.96988e-10
0.000224004
1.81842e-10
0.00020364
1.66731e-10
0.000185127
1.51873e-10
0.000168297
1.37397e-10
0.000152998
1.23428e-10
0.000139089
1.10049e-10
0.000126444
9.73217e-11
0.000114949
8.52842e-11
0.000104499
7.39528e-11
9.49995e-05
6.33298e-11
8.63632e-05
5.34085e-11
7.8512e-05
4.41742e-11
7.13745e-05
3.56012e-11
6.4886e-05
2.76606e-11
5.89872e-05
2.03268e-11
5.36247e-05
1.35581e-11
4.87498e-05
7.32077e-12
4.4318e-05
1.5886e-12
4.02891e-05
3.66264e-05
-3.35314e-12
3.66264e-05
-1.23396e-11
4.02891e-05
-2.21128e-11
4.4318e-05
-3.27169e-11
4.87498e-05
-4.41738e-11
5.36247e-05
-5.65116e-11
5.89872e-05
-6.97316e-11
6.48859e-05
-8.38423e-11
7.13745e-05
-9.88287e-11
7.8512e-05
-1.1467e-10
8.63632e-05
-1.31334e-10
9.49995e-05
-1.48771e-10
0.000104499
-1.66913e-10
0.000114949
-1.85659e-10
0.000126444
-2.04879e-10
0.000139089
-2.24391e-10
0.000152998
-2.43981e-10
0.000168297
-2.63365e-10
0.000185127
-2.82225e-10
0.00020364
-3.00193e-10
0.000224004
-3.16859e-10
0.000246404
-3.31834e-10
0.000271045
-3.44622e-10
0.000298149
-3.54912e-10
0.000327964
-3.62139e-10
0.00036076
-3.66169e-10
0.000396837
-3.66385e-10
0.00043652
-3.62879e-10
0.000480172
-3.55039e-10
0.000528189
-3.43076e-10
0.000581008
-3.2663e-10
0.000639109
-3.05868e-10
0.00070302
-2.80644e-10
0.000773322
-2.50888e-10
0.000850654
-2.16059e-10
0.00093572
-1.75756e-10
0.00102929
-1.29425e-10
0.00113222
-7.66154e-11
0.00124544
-1.71544e-11
0.00136999
4.14809e-11
0.00136999
9.23162e-11
0.00124544
1.35976e-10
0.00113222
1.7326e-10
0.00102929
2.04844e-10
0.00093572
2.31097e-10
0.000850654
2.52549e-10
0.000773322
2.68953e-10
0.00070302
2.80549e-10
0.000639109
2.87218e-10
0.000581008
2.89811e-10
0.000528189
2.88342e-10
0.000480172
2.83992e-10
0.00043652
2.767e-10
0.000396837
2.67392e-10
0.00036076
2.56089e-10
0.000327964
2.43472e-10
0.000298149
2.29675e-10
0.000271045
2.15181e-10
0.000246404
2.00176e-10
0.000224004
1.84992e-10
0.00020364
1.69804e-10
0.000185127
1.54834e-10
0.000168297
1.40214e-10
0.000152998
1.26078e-10
0.000139089
1.12508e-10
0.000126444
9.95763e-11
0.000114949
8.73195e-11
0.000104499
7.57643e-11
9.49995e-05
6.49202e-11
8.63632e-05
5.47817e-11
7.8512e-05
4.53351e-11
7.13745e-05
3.65556e-11
6.4886e-05
2.84218e-11
5.89872e-05
2.09059e-11
5.36247e-05
1.39623e-11
4.87498e-05
7.57261e-12
4.4318e-05
1.69589e-12
4.02891e-05
3.66264e-05
-3.26548e-12
3.66264e-05
-1.24821e-11
4.02891e-05
-2.25047e-11
4.4318e-05
-3.33733e-11
4.87498e-05
-4.51036e-11
5.36247e-05
-5.77197e-11
5.89872e-05
-7.12239e-11
6.48859e-05
-8.56097e-11
7.13745e-05
-1.00863e-10
7.8512e-05
-1.16954e-10
8.63632e-05
-1.33845e-10
9.49995e-05
-1.51474e-10
0.000104499
-1.69777e-10
0.000114949
-1.88643e-10
0.000126444
-2.07943e-10
0.000139089
-2.27493e-10
0.000152998
-2.47078e-10
0.000168297
-2.6642e-10
0.000185127
-2.85199e-10
0.00020364
-3.03059e-10
0.000224004
-3.19587e-10
0.000246404
-3.344e-10
0.000271045
-3.47002e-10
0.000298149
-3.57086e-10
0.000327964
-3.64083e-10
0.00036076
-3.67867e-10
0.000396837
-3.67824e-10
0.00043652
-3.64038e-10
0.000480172
-3.55939e-10
0.000528189
-3.43725e-10
0.000581008
-3.27071e-10
0.000639109
-3.06176e-10
0.00070302
-2.80843e-10
0.000773322
-2.5103e-10
0.000850654
-2.16148e-10
0.00093572
-1.75803e-10
0.00102929
-1.29417e-10
0.00113222
-7.65348e-11
0.00124544
-1.69748e-11
0.00136999
4.17684e-11
0.00136999
9.26973e-11
0.00124544
1.36423e-10
0.00113222
1.73753e-10
0.00102929
2.05401e-10
0.00093572
2.31752e-10
0.000850654
2.53316e-10
0.000773322
2.69884e-10
0.00070302
2.81675e-10
0.000639109
2.8855e-10
0.000581008
2.91347e-10
0.000528189
2.90067e-10
0.000480172
2.85874e-10
0.00043652
2.78696e-10
0.000396837
2.69455e-10
0.00036076
2.58164e-10
0.000327964
2.45506e-10
0.000298149
2.31618e-10
0.000271045
2.16992e-10
0.000246404
2.01821e-10
0.000224004
1.86452e-10
0.00020364
1.71072e-10
0.000185127
1.55912e-10
0.000168297
1.4111e-10
0.000152998
1.2681e-10
0.000139089
1.13097e-10
0.000126444
1.00043e-10
0.000114949
8.7689e-11
0.000104499
7.60609e-11
9.49995e-05
6.51585e-11
8.63632e-05
5.49791e-11
7.8512e-05
4.55094e-11
7.13745e-05
3.67198e-11
6.48859e-05
2.85818e-11
5.89872e-05
2.10649e-11
5.36247e-05
1.41336e-11
4.87498e-05
7.74847e-12
4.4318e-05
1.87823e-12
4.02891e-05
3.66264e-05
-3.52607e-12
3.66264e-05
-1.26132e-11
4.02891e-05
-2.2501e-11
4.4318e-05
-3.32249e-11
4.87498e-05
-4.48174e-11
5.36247e-05
-5.73056e-11
5.89872e-05
-7.06961e-11
6.48859e-05
-8.49919e-11
7.13745e-05
-1.00187e-10
7.8512e-05
-1.16248e-10
8.63632e-05
-1.33149e-10
9.49995e-05
-1.50838e-10
0.000104499
-1.69242e-10
0.000114949
-1.88253e-10
0.000126444
-2.07734e-10
0.000139089
-2.27498e-10
0.000152998
-2.47316e-10
0.000168297
-2.66897e-10
0.000185127
-2.85908e-10
0.00020364
-3.03976e-10
0.000224004
-3.20674e-10
0.000246404
-3.35612e-10
0.000271045
-3.48281e-10
0.000298149
-3.5838e-10
0.000327964
-3.65335e-10
0.00036076
-3.69032e-10
0.000396836
-3.68861e-10
0.00043652
-3.64925e-10
0.000480172
-3.56643e-10
0.000528189
-3.44251e-10
0.000581008
-3.27448e-10
0.000639109
-3.06423e-10
0.00070302
-2.81018e-10
0.000773322
-2.51137e-10
0.000850654
-2.16219e-10
0.00093572
-1.75833e-10
0.00102929
-1.29396e-10
0.00113222
-7.64455e-11
0.00124544
-1.67884e-11
0.00136999
4.206e-11
0.00136999
9.3077e-11
0.00124544
1.36863e-10
0.00113222
1.74233e-10
0.00102929
2.05929e-10
0.00093572
2.32371e-10
0.000850654
2.54036e-10
0.000773322
2.70759e-10
0.00070302
2.82702e-10
0.000639109
2.89753e-10
0.000581008
2.9271e-10
0.000528189
2.91573e-10
0.000480172
2.87501e-10
0.00043652
2.80423e-10
0.000396836
2.71258e-10
0.00036076
2.60025e-10
0.000327964
2.47408e-10
0.000298149
2.33546e-10
0.000271045
2.18932e-10
0.000246404
2.03759e-10
0.000224004
1.88374e-10
0.00020364
1.72962e-10
0.000185127
1.5775e-10
0.000168297
1.42879e-10
0.000152998
1.28491e-10
0.000139089
1.14673e-10
0.000126444
1.01498e-10
0.000114949
8.90115e-11
0.000104499
7.72391e-11
9.49995e-05
6.61915e-11
8.63632e-05
5.58611e-11
7.8512e-05
4.62408e-11
7.13745e-05
3.72978e-11
6.48859e-05
2.90151e-11
5.89872e-05
2.13554e-11
5.36247e-05
1.42908e-11
4.87498e-05
7.78044e-12
4.4318e-05
1.79412e-12
4.02891e-05
3.66264e-05
-3.29399e-12
3.66264e-05
-1.25535e-11
4.02891e-05
-2.26156e-11
4.4318e-05
-3.35296e-11
4.87498e-05
-4.53232e-11
5.36247e-05
-5.80071e-11
5.89872e-05
-7.1591e-11
6.48859e-05
-8.6068e-11
7.13745e-05
-1.01424e-10
7.8512e-05
-1.17634e-10
8.63632e-05
-1.34657e-10
9.49995e-05
-1.52438e-10
0.000104499
-1.70903e-10
0.000114949
-1.89945e-10
0.000126444
-2.0943e-10
0.000139089
-2.29169e-10
0.000152998
-2.4894e-10
0.000168297
-2.68457e-10
0.000185127
-2.87397e-10
0.00020364
-3.0539e-10
0.000224004
-3.2201e-10
0.000246404
-3.36873e-10
0.000271045
-3.49468e-10
0.000298149
-3.5949e-10
0.000327964
-3.66364e-10
0.00036076
-3.69971e-10
0.000396836
-3.69694e-10
0.00043652
-3.65636e-10
0.000480172
-3.57229e-10
0.000528189
-3.44704e-10
0.000581008
-3.27778e-10
0.000639109
-3.06667e-10
0.00070302
-2.81171e-10
0.000773322
-2.51243e-10
0.000850654
-2.16274e-10
0.00093572
-1.7585e-10
0.00102929
-1.29365e-10
0.00113222
-7.63516e-11
0.00124544
-1.66074e-11
0.00136999
4.23356e-11
0.00136999
9.34334e-11
0.00124544
1.37281e-10
0.00113222
1.74698e-10
0.00102929
2.06452e-10
0.00093572
2.32975e-10
0.000850654
2.54754e-10
0.000773322
2.71592e-10
0.00070302
2.83675e-10
0.000639109
2.90842e-10
0.000581008
2.93909e-10
0.000528189
2.92858e-10
0.000480172
2.88845e-10
0.00043652
2.81788e-10
0.000396836
2.72608e-10
0.00036076
2.61322e-10
0.000327964
2.48616e-10
0.000298149
2.34635e-10
0.000271045
2.19879e-10
0.000246404
2.04552e-10
0.000224004
1.89005e-10
0.00020364
1.73435e-10
0.000185127
1.58077e-10
0.000168297
1.43079e-10
0.000152998
1.28583e-10
0.000139089
1.14682e-10
0.000126444
1.01449e-10
0.000114949
8.89244e-11
0.000104499
7.71321e-11
9.49995e-05
6.60826e-11
8.63632e-05
5.57664e-11
7.8512e-05
4.61669e-11
7.13745e-05
3.72562e-11
6.48859e-05
2.90088e-11
5.89872e-05
2.13856e-11
5.36247e-05
1.43646e-11
4.87498e-05
7.89696e-12
4.4318e-05
1.95515e-12
4.02891e-05
3.66264e-05
-3.5497e-12
3.66264e-05
-1.26537e-11
4.02891e-05
-2.25615e-11
4.4318e-05
-3.33218e-11
4.87498e-05
-4.49481e-11
5.36247e-05
-5.74755e-11
5.89872e-05
-7.09113e-11
6.48859e-05
-8.52598e-11
7.13745e-05
-1.00509e-10
7.8512e-05
-1.16643e-10
8.63632e-05
-1.33626e-10
9.49995e-05
-1.51406e-10
0.000104499
-1.69913e-10
0.000114949
-1.89038e-10
0.000126444
-2.08643e-10
0.000139089
-2.28538e-10
0.000152998
-2.48491e-10
0.000168297
-2.68207e-10
0.000185127
-2.87345e-10
0.00020364
-3.05532e-10
0.000224004
-3.22325e-10
0.000246404
-3.37332e-10
0.000271045
-3.50034e-10
0.000298149
-3.60129e-10
0.000327964
-3.67032e-10
0.00036076
-3.70637e-10
0.000396836
-3.70325e-10
0.00043652
-3.66215e-10
0.000480172
-3.57722e-10
0.000528189
-3.45103e-10
0.000581008
-3.28084e-10
0.000639109
-3.06873e-10
0.00070302
-2.81321e-10
0.000773322
-2.5133e-10
0.000850654
-2.16326e-10
0.00093572
-1.75865e-10
0.00102929
-1.29334e-10
0.00113222
-7.62625e-11
0.00124544
-1.64365e-11
0.00136999
4.25942e-11
0.00136999
9.37687e-11
0.00124544
1.37677e-10
0.00113222
1.75146e-10
0.00102929
2.06956e-10
0.00093572
2.33561e-10
0.000850654
2.55422e-10
0.000773322
2.72378e-10
0.00070302
2.84557e-10
0.000639109
2.91836e-10
0.000581008
2.94991e-10
0.000528189
2.94013e-10
0.000480172
2.90056e-10
0.00043652
2.83044e-10
0.000396836
2.73898e-10
0.00036076
2.62639e-10
0.000327964
2.4996e-10
0.000298149
2.36002e-10
0.000271045
2.21268e-10
0.000246404
2.05958e-10
0.000224004
1.90422e-10
0.00020364
1.74849e-10
0.000185127
1.59477e-10
0.000168297
1.44446e-10
0.000152998
1.29902e-10
0.000139089
1.15932e-10
0.000126444
1.02613e-10
0.000114949
8.99893e-11
0.000104499
7.80869e-11
9.49995e-05
6.69189e-11
8.63632e-05
5.64763e-11
7.8512e-05
4.6747e-11
7.13745e-05
3.77129e-11
6.48859e-05
2.93412e-11
5.89872e-05
2.15987e-11
5.36247e-05
1.44587e-11
4.87497e-05
7.88492e-12
4.4318e-05
1.83551e-12
4.02891e-05
3.66264e-05
-3.31175e-12
3.66264e-05
-1.26036e-11
4.02891e-05
-2.27053e-11
4.4318e-05
-3.3662e-11
4.87498e-05
-4.55003e-11
5.36247e-05
-5.82329e-11
5.89872e-05
-7.187e-11
6.48859e-05
-8.64064e-11
7.13745e-05
-1.01824e-10
7.8512e-05
-1.181e-10
8.63632e-05
-1.35193e-10
9.49995e-05
-1.53045e-10
0.000104499
-1.71585e-10
0.000114949
-1.90705e-10
0.000126444
-2.10269e-10
0.000139089
-2.30089e-10
0.000152998
-2.49942e-10
0.000168297
-2.69539e-10
0.000185127
-2.88553e-10
0.00020364
-3.06614e-10
0.000224004
-3.2329e-10
0.000246404
-3.38198e-10
0.000271045
-3.50815e-10
0.000298149
-3.60842e-10
0.000327964
-3.67688e-10
0.00036076
-3.71244e-10
0.000396836
-3.70881e-10
0.00043652
-3.66712e-10
0.000480172
-3.58158e-10
0.000528189
-3.45471e-10
0.000581008
-3.28371e-10
0.000639109
-3.07104e-10
0.00070302
-2.8147e-10
0.000773322
-2.51436e-10
0.000850654
-2.16381e-10
0.00093572
-1.75881e-10
0.00102929
-1.29306e-10
0.00113222
-7.61803e-11
0.00124544
-1.62822e-11
0.00136999
4.28271e-11
0.00136999
9.40731e-11
0.00124544
1.38044e-10
0.00113222
1.75572e-10
0.00102929
2.07449e-10
0.00093572
2.34125e-10
0.000850654
2.56085e-10
0.000773322
2.73113e-10
0.00070302
2.85388e-10
0.000639109
2.92724e-10
0.000581008
2.95935e-10
0.000528189
2.94992e-10
0.000480172
2.91047e-10
0.00043652
2.84019e-10
0.000396836
2.74831e-10
0.00036076
2.63503e-10
0.000327964
2.50727e-10
0.000298149
2.36652e-10
0.000271045
2.21786e-10
0.000246404
2.06336e-10
0.000224004
1.90658e-10
0.00020364
1.74954e-10
0.000185127
1.59462e-10
0.000168297
1.44331e-10
0.000152998
1.29706e-10
0.000139089
1.15681e-10
0.000126444
1.0233e-10
0.000114949
8.96967e-11
0.000104499
7.78035e-11
9.49995e-05
6.6656e-11
8.63632e-05
5.62469e-11
7.8512e-05
4.65634e-11
7.13745e-05
3.7579e-11
6.48859e-05
2.92627e-11
5.89872e-05
2.15792e-11
5.36247e-05
1.4497e-11
4.87497e-05
7.98295e-12
4.4318e-05
1.98597e-12
4.02891e-05
3.66264e-05
-3.57163e-12
3.66264e-05
-1.26999e-11
4.02891e-05
-2.26308e-11
4.4318e-05
-3.3416e-11
4.87498e-05
-4.50731e-11
5.36247e-05
-5.76355e-11
5.89872e-05
-7.11067e-11
6.48859e-05
-8.54972e-11
7.13745e-05
-1.00797e-10
7.8512e-05
-1.16981e-10
8.63632e-05
-1.34017e-10
9.49995e-05
-1.51856e-10
0.000104499
-1.70422e-10
0.000114949
-1.89611e-10
0.000126444
-2.09282e-10
0.000139089
-2.29244e-10
0.000152998
-2.49262e-10
0.000168297
-2.69043e-10
0.000185127
-2.88244e-10
0.00020364
-3.06487e-10
0.000224004
-3.23327e-10
0.000246404
-3.38375e-10
0.000271045
-3.511e-10
0.000298149
-3.61207e-10
0.000327964
-3.68101e-10
0.00036076
-3.71683e-10
0.000396836
-3.71319e-10
0.00043652
-3.6714e-10
0.000480172
-3.58546e-10
0.000528189
-3.45808e-10
0.000581008
-3.28653e-10
0.000639109
-3.07303e-10
0.00070302
-2.81629e-10
0.000773322
-2.51534e-10
0.000850654
-2.16446e-10
0.000935719
-1.75908e-10
0.00102929
-1.29292e-10
0.00113222
-7.61133e-11
0.00124544
-1.61458e-11
0.00136999
4.30391e-11
0.00136999
9.4354e-11
0.00124544
1.38386e-10
0.00113222
1.75972e-10
0.00102929
2.07906e-10
0.000935719
2.34655e-10
0.000850654
2.5667e-10
0.000773322
2.73788e-10
0.00070302
2.86116e-10
0.000639109
2.93526e-10
0.000581008
2.96784e-10
0.000528189
2.95877e-10
0.000480172
2.91959e-10
0.00043652
2.84953e-10
0.000396836
2.75786e-10
0.00036076
2.64479e-10
0.000327964
2.51731e-10
0.000298149
2.37687e-10
0.000271045
2.22856e-10
0.000246404
2.07438e-10
0.000224004
1.91792e-10
0.00020364
1.76108e-10
0.000185127
1.60624e-10
0.000168297
1.45482e-10
0.000152998
1.3083e-10
0.000139089
1.16758e-10
0.000126444
1.03341e-10
0.000114949
9.06257e-11
0.000104499
7.86406e-11
9.49995e-05
6.73905e-11
8.63632e-05
5.68742e-11
7.8512e-05
4.70777e-11
7.13745e-05
3.79748e-11
6.48859e-05
2.95446e-11
5.89872e-05
2.17497e-11
5.36247e-05
1.45634e-11
4.87497e-05
7.94209e-12
4.4318e-05
1.85212e-12
4.02891e-05
3.66264e-05
-3.34372e-12
3.66264e-05
-1.26583e-11
4.02891e-05
-2.27844e-11
4.4318e-05
-3.37685e-11
4.87498e-05
-4.56354e-11
5.36247e-05
-5.84009e-11
5.89872e-05
-7.20653e-11
6.48859e-05
-8.66317e-11
7.13745e-05
-1.02085e-10
7.8512e-05
-1.18396e-10
8.63632e-05
-1.35527e-10
9.49995e-05
-1.53419e-10
0.000104499
-1.72001e-10
0.000114949
-1.91165e-10
0.000126444
-2.10773e-10
0.000139089
-2.30638e-10
0.000152998
-2.50536e-10
0.000168297
-2.70182e-10
0.000185127
-2.89241e-10
0.00020364
-3.07349e-10
0.000224004
-3.24068e-10
0.000246404
-3.39017e-10
0.000271045
-3.51665e-10
0.000298149
-3.61718e-10
0.000327964
-3.68574e-10
0.00036076
-3.72131e-10
0.000396836
-3.71744e-10
0.00043652
-3.67537e-10
0.000480172
-3.58914e-10
0.000528189
-3.4614e-10
0.000581008
-3.28928e-10
0.000639109
-3.07544e-10
0.00070302
-2.81795e-10
0.000773322
-2.51663e-10
0.000850654
-2.16523e-10
0.000935719
-1.75947e-10
0.00102929
-1.29289e-10
0.00113222
-7.60611e-11
0.00124544
-1.60317e-11
0.00136999
4.32204e-11
0.00136999
9.46005e-11
0.00124544
1.38694e-10
0.00113222
1.7634e-10
0.00102929
2.0834e-10
0.000935719
2.35147e-10
0.000850654
2.57244e-10
0.000773322
2.74401e-10
0.00070302
2.86795e-10
0.000639109
2.94227e-10
0.000581008
2.97511e-10
0.000528189
2.96612e-10
0.000480172
2.92686e-10
0.00043652
2.8565e-10
0.000396836
2.76432e-10
0.00036076
2.65054e-10
0.000327964
2.52212e-10
0.000298149
2.3806e-10
0.000271045
2.23108e-10
0.000246404
2.07565e-10
0.000224004
1.91793e-10
0.00020364
1.75994e-10
0.000185127
1.60406e-10
0.000168297
1.45184e-10
0.000152998
1.3047e-10
0.000139089
1.16362e-10
0.000126444
1.0293e-10
0.000114949
9.02216e-11
0.000104499
7.8257e-11
9.49995e-05
6.70431e-11
8.63631e-05
5.65743e-11
7.8512e-05
4.68345e-11
7.13745e-05
3.77996e-11
6.48859e-05
2.94343e-11
5.89872e-05
2.17089e-11
5.36247e-05
1.45857e-11
4.87497e-05
8.02808e-12
4.4318e-05
2.00133e-12
4.02891e-05
3.66264e-05
-3.59766e-12
3.66264e-05
-1.27337e-11
4.0289e-05
-2.26831e-11
4.4318e-05
-3.34763e-11
4.87497e-05
-4.51513e-11
5.36247e-05
-5.7727e-11
5.89872e-05
-7.12186e-11
6.48859e-05
-8.56287e-11
7.13745e-05
-1.00947e-10
7.8512e-05
-1.17153e-10
8.63632e-05
-1.34219e-10
9.49995e-05
-1.52086e-10
0.000104499
-1.70686e-10
0.000114949
-1.89911e-10
0.000126444
-2.0962e-10
0.000139089
-2.29623e-10
0.000152998
-2.49687e-10
0.000168297
-2.69515e-10
0.000185127
-2.88763e-10
0.00020364
-3.07055e-10
0.000224004
-3.23944e-10
0.000246404
-3.39041e-10
0.000271045
-3.51809e-10
0.000298149
-3.61957e-10
0.000327964
-3.68878e-10
0.00036076
-3.72478e-10
0.000396836
-3.72109e-10
0.00043652
-3.67912e-10
0.000480172
-3.59268e-10
0.000528189
-3.4646e-10
0.000581008
-3.2921e-10
0.000639109
-3.07755e-10
0.00070302
-2.81975e-10
0.000773322
-2.51786e-10
0.000850654
-2.16615e-10
0.000935719
-1.76004e-10
0.00102929
-1.29306e-10
0.00113222
-7.60303e-11
0.00124544
-1.59394e-11
0.00136999
4.3379e-11
0.00136999
9.48214e-11
0.00124544
1.38972e-10
0.00113222
1.76674e-10
0.00102929
2.08723e-10
0.000935719
2.35591e-10
0.000850654
2.5772e-10
0.000773322
2.74947e-10
0.00070302
2.87366e-10
0.000639109
2.9485e-10
0.000581008
2.98159e-10
0.000528189
2.97281e-10
0.000480172
2.9337e-10
0.00043652
2.8635e-10
0.000396836
2.77151e-10
0.00036076
2.65798e-10
0.000327964
2.52991e-10
0.000298149
2.38879e-10
0.000271045
2.23974e-10
0.000246404
2.08477e-10
0.000224004
1.92752e-10
0.00020364
1.76987e-10
0.000185127
1.61421e-10
0.000168297
1.46203e-10
0.000152998
1.31477e-10
0.000139089
1.17334e-10
0.000126444
1.03852e-10
0.000114949
9.10743e-11
0.000104499
7.90275e-11
9.49995e-05
6.77243e-11
8.63631e-05
5.71567e-11
7.8512e-05
4.73106e-11
7.13745e-05
3.81641e-11
6.48859e-05
2.96937e-11
5.89872e-05
2.18625e-11
5.36247e-05
1.46354e-11
4.87497e-05
7.98472e-12
4.4318e-05
1.86517e-12
4.02891e-05
3.66264e-05
-3.35794e-12
3.66264e-05
-1.26796e-11
4.0289e-05
-2.28129e-11
4.4318e-05
-3.38023e-11
4.87497e-05
-4.56736e-11
5.36247e-05
-5.84439e-11
5.89872e-05
-7.21206e-11
6.48859e-05
-8.67046e-11
7.13745e-05
-1.02171e-10
7.8512e-05
-1.18502e-10
8.63631e-05
-1.35655e-10
9.49995e-05
-1.53572e-10
0.000104499
-1.72182e-10
0.000114949
-1.91378e-10
0.000126444
-2.11023e-10
0.000139089
-2.3093e-10
0.000152998
-2.50875e-10
0.000168297
-2.7057e-10
0.000185127
-2.89683e-10
0.00020364
-3.07849e-10
0.000224004
-3.24624e-10
0.000246404
-3.3963e-10
0.000271045
-3.52329e-10
0.000298149
-3.6243e-10
0.000327964
-3.69319e-10
0.00036076
-3.72902e-10
0.000396836
-3.72516e-10
0.00043652
-3.68297e-10
0.000480172
-3.59633e-10
0.000528189
-3.46799e-10
0.000581008
-3.29498e-10
0.000639109
-3.08018e-10
0.00070302
-2.82166e-10
0.000773322
-2.51944e-10
0.000850654
-2.16724e-10
0.000935719
-1.76076e-10
0.00102929
-1.29339e-10
0.00113222
-7.60181e-11
0.00124544
-1.58736e-11
0.00136999
4.35033e-11
0.00136999
9.50036e-11
0.00124544
1.39211e-10
0.00113222
1.76967e-10
0.00102929
2.09075e-10
0.000935719
2.35987e-10
0.000850654
2.58184e-10
0.000773322
2.75427e-10
0.00070302
2.87894e-10
0.000639109
2.95379e-10
0.000581008
2.987e-10
0.000528189
2.97819e-10
0.000480172
2.93892e-10
0.00043652
2.8684e-10
0.000396836
2.77591e-10
0.00036076
2.66169e-10
0.000327964
2.53275e-10
0.000298149
2.39063e-10
0.000271045
2.24045e-10
0.000246404
2.08435e-10
0.000224004
1.92594e-10
0.00020364
1.76725e-10
0.000185127
1.61072e-10
0.000168297
1.45784e-10
0.000152998
1.31008e-10
0.000139089
1.16839e-10
0.000126444
1.03352e-10
0.000114949
9.05884e-11
0.000104499
7.85745e-11
9.49995e-05
6.7315e-11
8.63631e-05
5.68032e-11
7.8512e-05
4.70261e-11
7.13745e-05
3.7952e-11
6.48859e-05
2.95542e-11
5.89872e-05
2.17959e-11
5.36247e-05
1.46488e-11
4.87497e-05
8.06644e-12
4.4318e-05
2.01794e-12
4.02891e-05
3.66264e-05
-3.60956e-12
3.66264e-05
-1.27542e-11
4.0289e-05
-2.27062e-11
4.43179e-05
-3.35101e-11
4.87497e-05
-4.51949e-11
5.36247e-05
-5.77813e-11
5.89872e-05
-7.12832e-11
6.48859e-05
-8.57066e-11
7.13745e-05
-1.01043e-10
7.8512e-05
-1.17271e-10
8.63631e-05
-1.3436e-10
9.49995e-05
-1.52253e-10
0.000104499
-1.70888e-10
0.000114949
-1.90149e-10
0.000126444
-2.09901e-10
0.000139089
-2.29951e-10
0.000152998
-2.50065e-10
0.000168297
-2.69949e-10
0.000185127
-2.89254e-10
0.00020364
-3.07607e-10
0.000224004
-3.24553e-10
0.000246404
-3.39707e-10
0.000271045
-3.52524e-10
0.000298149
-3.62714e-10
0.000327964
-3.69662e-10
0.00036076
-3.73281e-10
0.000396836
-3.72907e-10
0.00043652
-3.68694e-10
0.000480172
-3.60006e-10
0.000528189
-3.47135e-10
0.000581008
-3.29801e-10
0.000639109
-3.08249e-10
0.00070302
-2.82373e-10
0.000773322
-2.52097e-10
0.000850654
-2.16849e-10
0.000935719
-1.76168e-10
0.00102929
-1.29395e-10
0.00113222
-7.60309e-11
0.00124544
-1.58319e-11
0.00136999
4.36032e-11
0.00136999
9.51584e-11
0.00124544
1.39417e-10
0.00113222
1.7722e-10
0.00102929
2.09367e-10
0.000935719
2.36328e-10
0.000850654
2.58538e-10
0.000773322
2.75839e-10
0.00070302
2.88313e-10
0.000639109
2.95841e-10
0.000581008
2.99177e-10
0.000528189
2.98311e-10
0.000480172
2.94397e-10
0.00043652
2.87361e-10
0.000396836
2.78134e-10
0.00036076
2.66743e-10
0.000327964
2.53891e-10
0.000298149
2.39729e-10
0.000271045
2.24769e-10
0.000246404
2.09217e-10
0.000224004
1.93433e-10
0.00020364
1.77609e-10
0.000185127
1.61988e-10
0.000168297
1.46716e-10
0.000152998
1.31939e-10
0.000139089
1.17745e-10
0.000126444
1.04216e-10
0.000114949
9.13918e-11
0.000104499
7.93036e-11
9.49995e-05
6.79592e-11
8.63631e-05
5.73571e-11
7.8512e-05
4.74796e-11
7.13745e-05
3.83061e-11
6.48859e-05
2.98056e-11
5.89872e-05
2.19487e-11
5.36247e-05
1.46958e-11
4.87497e-05
8.01565e-12
4.4318e-05
1.87228e-12
4.02891e-05
3.66264e-05
-3.33369e-12
3.66264e-05
-1.26704e-11
4.0289e-05
-2.28307e-11
4.43179e-05
-3.38485e-11
4.87497e-05
-4.57501e-11
5.36247e-05
-5.85505e-11
5.89872e-05
-7.22646e-11
6.48859e-05
-8.68819e-11
7.13745e-05
-1.0239e-10
7.85119e-05
-1.18759e-10
8.63631e-05
-1.35955e-10
9.49995e-05
-1.53918e-10
0.000104499
-1.72575e-10
0.000114949
-1.9182e-10
0.000126444
-2.11516e-10
0.000139089
-2.31476e-10
0.000152998
-2.51472e-10
0.000168297
-2.71219e-10
0.000185127
-2.90382e-10
0.00020364
-3.08594e-10
0.000224004
-3.25411e-10
0.000246404
-3.40454e-10
0.000271045
-3.53178e-10
0.000298149
-3.633e-10
0.000327964
-3.70193e-10
0.00036076
-3.73775e-10
0.000396836
-3.73366e-10
0.00043652
-3.69119e-10
0.000480172
-3.604e-10
0.000528189
-3.47501e-10
0.000581008
-3.30112e-10
0.000639109
-3.0854e-10
0.00070302
-2.82591e-10
0.000773322
-2.52287e-10
0.000850654
-2.16991e-10
0.000935719
-1.76276e-10
0.00102929
-1.29467e-10
0.00113222
-7.60638e-11
0.00124544
-1.58189e-11
0.00136999
4.36662e-11
0.00136999
9.5271e-11
0.00124544
1.39578e-10
0.00113222
1.77428e-10
0.00102929
2.09626e-10
0.000935719
2.36617e-10
0.000850654
2.58887e-10
0.000773322
2.76186e-10
0.00070302
2.88701e-10
0.000639109
2.96217e-10
0.000581008
2.99558e-10
0.000528189
2.98684e-10
0.000480172
2.94753e-10
0.00043652
2.87686e-10
0.000396836
2.78412e-10
0.00036076
2.66959e-10
0.000327964
2.54026e-10
0.000298149
2.39771e-10
0.000271045
2.24707e-10
0.000246404
2.09047e-10
0.000224004
1.93158e-10
0.00020364
1.77241e-10
0.000185127
1.61539e-10
0.000168297
1.46206e-10
0.000152998
1.31386e-10
0.000139089
1.17175e-10
0.000126444
1.03647e-10
0.000114949
9.08478e-11
0.000104499
7.87987e-11
9.49995e-05
6.75069e-11
8.63631e-05
5.69666e-11
7.8512e-05
4.71616e-11
7.13745e-05
3.80647e-11
6.48859e-05
2.9641e-11
5.89872e-05
2.18608e-11
5.36247e-05
1.46924e-11
4.87497e-05
8.09381e-12
4.4318e-05
2.02443e-12
4.02891e-05
3.66264e-05
-3.60485e-12
3.66264e-05
-1.27759e-11
4.0289e-05
-2.27558e-11
4.43179e-05
-3.35891e-11
4.87497e-05
-4.53087e-11
5.36247e-05
-5.7933e-11
5.89872e-05
-7.14777e-11
6.48859e-05
-8.59455e-11
7.13745e-05
-1.01328e-10
7.85119e-05
-1.17607e-10
8.63631e-05
-1.3475e-10
9.49995e-05
-1.52701e-10
0.000104499
-1.71392e-10
0.000114949
-1.90712e-10
0.000126444
-2.10526e-10
0.000139089
-2.30636e-10
0.000152998
-2.50808e-10
0.000168297
-2.70748e-10
0.000185127
-2.90103e-10
0.00020364
-3.08499e-10
0.000224004
-3.25478e-10
0.000246404
-3.40657e-10
0.000271045
-3.53483e-10
0.000298149
-3.63678e-10
0.000327964
-3.70611e-10
0.00036076
-3.74213e-10
0.000396836
-3.73802e-10
0.00043652
-3.6955e-10
0.000480172
-3.60799e-10
0.000528189
-3.47858e-10
0.000581008
-3.30436e-10
0.000639109
-3.0879e-10
0.00070302
-2.82822e-10
0.000773322
-2.52467e-10
0.000850654
-2.17149e-10
0.000935719
-1.76404e-10
0.00102929
-1.29565e-10
0.00113222
-7.61232e-11
0.00124544
-1.58312e-11
0.00136999
4.37041e-11
0.00136999
9.53553e-11
0.00124544
1.39705e-10
0.00113222
1.77594e-10
0.00102929
2.09817e-10
0.000935719
2.36849e-10