/*--------------------------------*- C++ -*----------------------------------*\
| =========                 |                                                 |
| \\      /  F ield         | OpenFOAM: The Open Source CFD Toolbox           |
|  \\    /   O peration     | Version:  5.x                                   |
|   \\  /    A nd           | Web:      www.OpenFOAM.org                      |
|    \\/     M anipulation  |                                                 |
\*---------------------------------------------------------------------------*/
FoamFile
{
    version     2.0;
    format      ascii;
    class       volVectorField;
    location    "0";
    object      U;
}
// * * * * * * * * * * * * * * * * * * * * * * * * * * * * * * * * * * * * * //

dimensions      [0 1 -1 0 0 0 0];

internalField   nonuniform List<vector> 
152470
(
(44.2 6.78811e-08 0)
(44.2 8.29144e-08 0)
(44.2 -2.74096e-08 0)
(44.2 -1.46958e-07 0)
(44.2 -2.75519e-07 0)
(44.2 -4.12935e-07 0)
(44.2 -5.58485e-07 0)
(44.2 -7.10716e-07 0)
(44.2 -8.67657e-07 0)
(44.2 -1.02659e-06 0)
(44.2 -1.18384e-06 0)
(44.2 -1.33455e-06 0)
(44.2 -1.47265e-06 0)
(44.2 -1.59061e-06 0)
(44.2 -1.6793e-06 0)
(44.2 -1.72728e-06 0)
(44.2 -1.72129e-06 0)
(44.2 -1.64478e-06 0)
(44.2 -1.47913e-06 0)
(44.2 -1.20132e-06 0)
(44.2 -7.87141e-07 0)
(44.2 -2.07057e-07 0)
(44.2 5.66643e-07 0)
(44.2 1.56833e-06 0)
(44.2 2.82404e-06 0)
(44.2 4.36775e-06 0)
(44.2 6.21446e-06 0)
(44.2 8.38818e-06 0)
(44.2 1.08822e-05 0)
(44.2 1.37031e-05 0)
(44.2 1.684e-05 0)
(44.2 2.03195e-05 0)
(44.2 2.43177e-05 0)
(44.2 2.90599e-05 0)
(44.2 3.47978e-05 0)
(44.2 4.17008e-05 0)
(44.2 4.97695e-05 0)
(44.2 5.83817e-05 0)
(44.2 6.64615e-05 0)
(44.2 7.35316e-05 0)
(44.2 7.96912e-05 0)
(44.2 8.50754e-05 0)
(44.2 8.98107e-05 0)
(44.2 9.38503e-05 0)
(44.2 9.71152e-05 0)
(44.2 9.94728e-05 0)
(44.2 0.000100852 0)
(44.2 0.000101227 0)
(44.2 0.000100664 0)
(44.2 9.9227e-05 0)
(44.2 9.69608e-05 0)
(44.2 9.39518e-05 0)
(44.2 9.02595e-05 0)
(44.2 8.5997e-05 0)
(44.2 8.12514e-05 0)
(44.2 7.61471e-05 0)
(44.2 7.07843e-05 0)
(44.2 6.52779e-05 0)
(44.2 5.97205e-05 0)
(44.2 5.42031e-05 0)
(44.2 4.87965e-05 0)
(44.2 4.35618e-05 0)
(44.2 3.85438e-05 0)
(44.2 3.37759e-05 0)
(44.2 2.92794e-05 0)
(44.2 2.50664e-05 0)
(44.2 2.11407e-05 0)
(44.2 1.74995e-05 0)
(44.2 1.4136e-05 0)
(44.2 1.10392e-05 0)
(44.2 8.19586e-06 0)
(44.2 5.59137e-06 0)
(44.2 3.21018e-06 0)
(44.2 1.03673e-06 0)
(44.2 5.17751e-08 0)
(44.2 2.87816e-08 0)
(44.2 -1.25997e-07 0)
(44.2 -2.91556e-07 0)
(44.2 -4.67275e-07 0)
(44.2 -6.51617e-07 0)
(44.2 -8.42985e-07 0)
(44.2 -1.03889e-06 0)
(44.2 -1.23621e-06 0)
(44.2 -1.43118e-06 0)
(44.2 -1.61933e-06 0)
(44.2 -1.79523e-06 0)
(44.2 -1.95257e-06 0)
(44.2 -2.08363e-06 0)
(44.2 -2.17934e-06 0)
(44.2 -2.22816e-06 0)
(44.2 -2.21677e-06 0)
(44.2 -2.12828e-06 0)
(44.2 -1.94422e-06 0)
(44.2 -1.64096e-06 0)
(44.2 -1.19518e-06 0)
(44.2 -5.76764e-07 0)
(44.2 2.40047e-07 0)
(44.2 1.29003e-06 0)
(44.2 2.59585e-06 0)
(44.2 4.19167e-06 0)
(44.2 6.08682e-06 0)
(44.2 8.30126e-06 0)
(44.2 1.08188e-05 0)
(44.2 1.36353e-05 0)
(44.2 1.67565e-05 0)
(44.2 2.01935e-05 0)
(44.2 2.41492e-05 0)
(44.2 2.89132e-05 0)
(44.2 3.47199e-05 0)
(44.2 4.16865e-05 0)
(44.2 4.97944e-05 0)
(44.2 5.84249e-05 0)
(44.2 6.65063e-05 0)
(44.2 7.35771e-05 0)
(44.2 7.97619e-05 0)
(44.2 8.51964e-05 0)
(44.2 9.00297e-05 0)
(44.2 9.42189e-05 0)
(44.2 9.76298e-05 0)
(44.2 0.000100123 0)
(44.2 0.000101672 0)
(44.2 0.000102258 0)
(44.2 0.000101936 0)
(44.2 0.000100762 0)
(44.2 9.8765e-05 0)
(44.2 9.60208e-05 0)
(44.2 9.25737e-05 0)
(44.2 8.85275e-05 0)
(44.2 8.39568e-05 0)
(44.2 7.89805e-05 0)
(44.2 7.3692e-05 0)
(44.2 6.82051e-05 0)
(44.2 6.26114e-05 0)
(44.2 5.70043e-05 0)
(44.2 5.1458e-05 0)
(44.2 4.60386e-05 0)
(44.2 4.07963e-05 0)
(44.2 3.57708e-05 0)
(44.2 3.09895e-05 0)
(44.2 2.64705e-05 0)
(44.2 2.22231e-05 0)
(44.2 1.82504e-05 0)
(44.2 1.45499e-05 0)
(44.2 1.1115e-05 0)
(44.2 7.93592e-06 0)
(44.2 5.00095e-06 0)
(44.2 2.29749e-06 0)
(44.2 5.00958e-07 0)
(44.2 4.23035e-08 0)
(44.2 -3.01675e-09 0)
(44.2 -1.84365e-07 0)
(44.2 -3.77286e-07 0)
(44.2 -5.80658e-07 0)
(44.2 -7.92846e-07 0)
(44.2 -1.01133e-06 0)
(44.2 -1.23343e-06 0)
(44.2 -1.45578e-06 0)
(44.2 -1.67412e-06 0)
(44.2 -1.88383e-06 0)
(44.2 -2.07943e-06 0)
(44.2 -2.25459e-06 0)
(44.2 -2.40118e-06 0)
(44.2 -2.50977e-06 0)
(44.2 -2.56831e-06 0)
(44.2 -2.56303e-06 0)
(44.2 -2.47593e-06 0)
(44.2 -2.28847e-06 0)
(44.2 -1.97608e-06 0)
(44.2 -1.51612e-06 0)
(44.2 -8.7758e-07 0)
(44.2 -3.65711e-08 0)
(44.2 1.04276e-06 0)
(44.2 2.38028e-06 0)
(44.2 4.011e-06 0)
(44.2 5.94062e-06 0)
(44.2 8.18591e-06 0)
(44.2 1.07219e-05 0)
(44.2 1.3529e-05 0)
(44.2 1.66364e-05 0)
(44.2 2.00769e-05 0)
(44.2 2.40524e-05 0)
(44.2 2.88433e-05 0)
(44.2 3.46818e-05 0)
(44.2 4.16813e-05 0)
(44.2 4.98139e-05 0)
(44.2 5.84591e-05 0)
(44.2 6.65479e-05 0)
(44.2 7.36298e-05 0)
(44.2 7.98543e-05 0)
(44.2 8.5348e-05 0)
(44.2 9.02468e-05 0)
(44.2 9.45027e-05 0)
(44.2 9.80014e-05 0)
(44.2 0.000100607 0)
(44.2 0.000102296 0)
(44.2 0.000103046 0)
(44.2 0.000102906 0)
(44.2 0.000101924 0)
(44.2 0.000100116 0)
(44.2 9.7552e-05 0)
(44.2 9.42619e-05 0)
(44.2 9.03441e-05 0)
(44.2 8.58649e-05 0)
(44.2 8.09413e-05 0)
(44.2 7.56646e-05 0)
(44.2 7.01513e-05 0)
(44.2 6.44961e-05 0)
(44.2 5.87981e-05 0)
(44.2 5.3137e-05 0)
(44.2 4.75855e-05 0)
(44.2 4.21994e-05 0)
(44.2 3.70237e-05 0)
(44.2 3.20905e-05 0)
(44.2 2.74216e-05 0)
(44.2 2.30294e-05 0)
(44.2 1.8919e-05 0)
(44.2 1.5089e-05 0)
(44.2 1.15338e-05 0)
(44.2 8.24433e-06 0)
(44.2 5.20886e-06 0)
(44.2 2.41439e-06 0)
(44.2 5.37863e-07 0)
(44.2 3.53531e-08 0)
(44.2 -2.34586e-08 0)
(44.2 -2.18039e-07 0)
(44.2 -4.25006e-07 0)
(44.2 -6.43412e-07 0)
(44.2 -8.71537e-07 0)
(44.2 -1.1069e-06 0)
(44.2 -1.34634e-06 0)
(44.2 -1.58615e-06 0)
(44.2 -1.82201e-06 0)
(44.2 -2.04904e-06 0)
(44.2 -2.26128e-06 0)
(44.2 -2.45206e-06 0)
(44.2 -2.61303e-06 0)
(44.2 -2.73431e-06 0)
(44.2 -2.8034e-06 0)
(44.2 -2.80633e-06 0)
(44.2 -2.72476e-06 0)
(44.2 -2.53979e-06 0)
(44.2 -2.2268e-06 0)
(44.2 -1.76287e-06 0)
(44.2 -1.11725e-06 0)
(44.2 -2.65692e-07 0)
(44.2 8.26861e-07 0)
(44.2 2.18113e-06 0)
(44.2 3.83046e-06 0)
(44.2 5.78217e-06 0)
(44.2 8.04874e-06 0)
(44.2 1.06059e-05 0)
(44.2 1.34207e-05 0)
(44.2 1.65221e-05 0)
(44.2 1.99683e-05 0)
(44.2 2.39602e-05 0)
(44.2 2.87748e-05 0)
(44.2 3.46409e-05 0)
(44.2 4.167e-05 0)
(44.2 4.98303e-05 0)
(44.2 5.84987e-05 0)
(44.2 6.66066e-05 0)
(44.2 7.3708e-05 0)
(44.2 7.99639e-05 0)
(44.2 8.55099e-05 0)
(44.2 9.04607e-05 0)
(44.2 9.47769e-05 0)
(44.2 9.8353e-05 0)
(44.2 0.000101054 0)
(44.2 0.000102854 0)
(44.2 0.000103726 0)
(44.2 0.000103717 0)
(44.2 0.000102863 0)
(44.2 0.000101178 0)
(44.2 9.87216e-05 0)
(44.2 9.55207e-05 0)
(44.2 9.16688e-05 0)
(44.2 8.72299e-05 0)
(44.2 8.23202e-05 0)
(44.2 7.70317e-05 0)
(44.2 7.1483e-05 0)
(44.2 6.57717e-05 0)
(44.2 6.00007e-05 0)
(44.2 5.42533e-05 0)
(44.2 4.86062e-05 0)
(44.2 4.31189e-05 0)
(44.2 3.78396e-05 0)
(44.2 3.28029e-05 0)
(44.2 2.80328e-05 0)
(44.2 2.35433e-05 0)
(44.2 1.93406e-05 0)
(44.2 1.54241e-05 0)
(44.2 1.17886e-05 0)
(44.2 8.42511e-06 0)
(44.2 5.32194e-06 0)
(44.2 2.46563e-06 0)
(44.2 5.48711e-07 0)
(44.2 3.32725e-08 0)
(44.2 -3.15228e-08 0)
(44.2 -2.34237e-07 0)
(44.2 -4.49979e-07 0)
(44.2 -6.77797e-07 0)
(44.2 -9.15944e-07 0)
(44.2 -1.16189e-06 0)
(44.2 -1.41244e-06 0)
(44.2 -1.66402e-06 0)
(44.2 -1.91203e-06 0)
(44.2 -2.15139e-06 0)
(44.2 -2.37616e-06 0)
(44.2 -2.57935e-06 0)
(44.2 -2.75227e-06 0)
(44.2 -2.88499e-06 0)
(44.2 -2.9647e-06 0)
(44.2 -2.97698e-06 0)
(44.2 -2.90336e-06 0)
(44.2 -2.72464e-06 0)
(44.2 -2.41587e-06 0)
(44.2 -1.95399e-06 0)
(44.2 -1.30814e-06 0)
(44.2 -4.53981e-07 0)
(44.2 6.43491e-07 0)
(44.2 2.00512e-06 0)
(44.2 3.66389e-06 0)
(44.2 5.6278e-06 0)
(44.2 7.90854e-06 0)
(44.2 1.04819e-05 0)
(44.2 1.33079e-05 0)
(44.2 1.64127e-05 0)
(44.2 1.98633e-05 0)
(44.2 2.38676e-05 0)
(44.2 2.87028e-05 0)
(44.2 3.45951e-05 0)
(44.2 4.1654e-05 0)
(44.2 4.98445e-05 0)
(44.2 5.85412e-05 0)
(44.2 6.66745e-05 0)
(44.2 7.38002e-05 0)
(44.2 8.00863e-05 0)
(44.2 8.56755e-05 0)
(44.2 9.06745e-05 0)
(44.2 9.50454e-05 0)
(44.2 9.86872e-05 0)
(44.2 0.000101463 0)
(44.2 0.000103346 0)
(44.2 0.000104304 0)
(44.2 0.00010438 0)
(44.2 0.000103604 0)
(44.2 0.000101987 0)
(44.2 9.9584e-05 0)
(44.2 9.64197e-05 0)
(44.2 9.25865e-05 0)
(44.2 8.81489e-05 0)
(44.2 8.32246e-05 0)
(44.2 7.79076e-05 0)
(44.2 7.23196e-05 0)
(44.2 6.65606e-05 0)
(44.2 6.0736e-05 0)
(44.2 5.49316e-05 0)
(44.2 4.92256e-05 0)
(44.2 4.36788e-05 0)
(44.2 3.83406e-05 0)
(44.2 3.32461e-05 0)
(44.2 2.84202e-05 0)
(44.2 2.38769e-05 0)
(44.2 1.96227e-05 0)
(44.2 1.56575e-05 0)
(44.2 1.19759e-05 0)
(44.2 8.56892e-06 0)
(44.2 5.42491e-06 0)
(44.2 2.53077e-06 0)
(44.2 5.72225e-07 0)
(44.2 3.10363e-08 0)
(44.2 -3.71978e-08 0)
(44.2 -2.43017e-07 0)
(44.2 -4.62456e-07 0)
(44.2 -6.94097e-07 0)
(44.2 -9.36376e-07 0)
(44.2 -1.18693e-06 0)
(44.2 -1.44281e-06 0)
(44.2 -1.70013e-06 0)
(44.2 -1.95448e-06 0)
(44.2 -2.20079e-06 0)
(44.2 -2.43302e-06 0)
(44.2 -2.64438e-06 0)
(44.2 -2.82606e-06 0)
(44.2 -2.96795e-06 0)
(44.2 -3.05703e-06 0)
(44.2 -3.07879e-06 0)
(44.2 -3.01445e-06 0)
(44.2 -2.84451e-06 0)
(44.2 -2.54375e-06 0)
(44.2 -2.08885e-06 0)
(44.2 -1.44855e-06 0)
(44.2 -5.98338e-07 0)
(44.2 4.97093e-07 0)
(44.2 1.85872e-06 0)
(44.2 3.51966e-06 0)
(44.2 5.48805e-06 0)
(44.2 7.77517e-06 0)
(44.2 1.03578e-05 0)
(44.2 1.3193e-05 0)
(44.2 1.63034e-05 0)
(44.2 1.976e-05 0)
(44.2 2.37752e-05 0)
(44.2 2.86291e-05 0)
(44.2 3.45468e-05 0)
(44.2 4.1635e-05 0)
(44.2 4.98568e-05 0)
(44.2 5.85844e-05 0)
(44.2 6.67464e-05 0)
(44.2 7.38993e-05 0)
(44.2 8.02145e-05 0)
(44.2 8.5841e-05 0)
(44.2 9.08817e-05 0)
(44.2 9.52991e-05 0)
(44.2 9.89935e-05 0)
(44.2 0.000101826 0)
(44.2 0.000103769 0)
(44.2 0.000104786 0)
(44.2 0.000104916 0)
(44.2 0.000104188 0)
(44.2 0.000102608 0)
(44.2 0.000100231 0)
(44.2 9.70806e-05 0)
(44.2 9.32483e-05 0)
(44.2 8.87987e-05 0)
(44.2 8.38507e-05 0)
(44.2 7.84997e-05 0)
(44.2 7.28693e-05 0)
(44.2 6.70615e-05 0)
(44.2 6.11842e-05 0)
(44.2 5.53252e-05 0)
(44.2 4.95653e-05 0)
(44.2 4.39669e-05 0)
(44.2 3.85806e-05 0)
(44.2 3.34428e-05 0)
(44.2 2.85784e-05 0)
(44.2 2.40019e-05 0)
(44.2 1.97197e-05 0)
(44.2 1.57309e-05 0)
(44.2 1.20299e-05 0)
(44.2 8.607e-06 0)
(44.2 5.45033e-06 0)
(44.2 2.54562e-06 0)
(44.2 5.77159e-07 0)
(44.2 2.99662e-08 0)
(44.2 -4.10892e-08 0)
(44.2 -2.50107e-07 0)
(44.2 -4.72844e-07 0)
(44.2 -7.08196e-07 0)
(44.2 -9.5444e-07 0)
(44.2 -1.20927e-06 0)
(44.2 -1.46954e-06 0)
(44.2 -1.73164e-06 0)
(44.2 -1.99109e-06 0)
(44.2 -2.24278e-06 0)
(44.2 -2.48071e-06 0)
(44.2 -2.69795e-06 0)
(44.2 -2.88578e-06 0)
(44.2 -3.03407e-06 0)
(44.2 -3.12982e-06 0)
(44.2 -3.15841e-06 0)
(44.2 -3.10096e-06 0)
(44.2 -2.93796e-06 0)
(44.2 -2.64396e-06 0)
(44.2 -2.19549e-06 0)
(44.2 -1.56104e-06 0)
(44.2 -7.15997e-07 0)
(44.2 3.75323e-07 0)
(44.2 1.73397e-06 0)
(44.2 3.39347e-06 0)
(44.2 5.36206e-06 0)
(44.2 7.65164e-06 0)
(44.2 1.02385e-05 0)
(44.2 1.30787e-05 0)
(44.2 1.61944e-05 0)
(44.2 1.96568e-05 0)
(44.2 2.36827e-05 0)
(44.2 2.85548e-05 0)
(44.2 3.44967e-05 0)
(44.2 4.16138e-05 0)
(44.2 4.98666e-05 0)
(44.2 5.86254e-05 0)
(44.2 6.68173e-05 0)
(44.2 7.39988e-05 0)
(44.2 8.03437e-05 0)
(44.2 8.60034e-05 0)
(44.2 9.10809e-05 0)
(44.2 9.55362e-05 0)
(44.2 9.92707e-05 0)
(44.2 0.000102144 0)
(44.2 0.000104128 0)
(44.2 0.000105183 0)
(44.2 0.000105348 0)
(44.2 0.000104647 0)
(44.2 0.000103089 0)
(44.2 0.000100724 0)
(44.2 9.75796e-05 0)
(44.2 9.37469e-05 0)
(44.2 8.9292e-05 0)
(44.2 8.43351e-05 0)
(44.2 7.89725e-05 0)
(44.2 7.33285e-05 0)
(44.2 6.75057e-05 0)
(44.2 6.1612e-05 0)
(44.2 5.57348e-05 0)
(44.2 4.99543e-05 0)
(44.2 4.43327e-05 0)
(44.2 3.89204e-05 0)
(44.2 3.37535e-05 0)
(44.2 2.88575e-05 0)
(44.2 2.4247e-05 0)
(44.2 1.99289e-05 0)
(44.2 1.59034e-05 0)
(44.2 1.21655e-05 0)
(44.2 8.70601e-06 0)
(44.2 5.51346e-06 0)
(44.2 2.57453e-06 0)
(44.2 5.8336e-07 0)
(44.2 2.93508e-08 0)
(44.2 -4.27872e-08 0)
(44.2 -2.53061e-07 0)
(44.2 -4.77375e-07 0)
(44.2 -7.14531e-07 0)
(44.2 -9.62914e-07 0)
(44.2 -1.22004e-06 0)
(44.2 -1.48292e-06 0)
(44.2 -1.74807e-06 0)
(44.2 -2.01086e-06 0)
(44.2 -2.26633e-06 0)
(44.2 -2.50849e-06 0)
(44.2 -2.73031e-06 0)
(44.2 -2.92321e-06 0)
(44.2 -3.07705e-06 0)
(44.2 -3.17871e-06 0)
(44.2 -3.21364e-06 0)
(44.2 -3.16287e-06 0)
(44.2 -3.0067e-06 0)
(44.2 -2.7196e-06 0)
(44.2 -2.27809e-06 0)
(44.2 -1.65036e-06 0)
(44.2 -8.11692e-07 0)
(44.2 2.73902e-07 0)
(44.2 1.62757e-06 0)
(44.2 3.28323e-06 0)
(44.2 5.24922e-06 0)
(44.2 7.5374e-06 0)
(44.2 1.01249e-05 0)
(44.2 1.29672e-05 0)
(44.2 1.60863e-05 0)
(44.2 1.95549e-05 0)
(44.2 2.35913e-05 0)
(44.2 2.84804e-05 0)
(44.2 3.44461e-05 0)
(44.2 4.15908e-05 0)
(44.2 4.9874e-05 0)
(44.2 5.86637e-05 0)
(44.2 6.68857e-05 0)
(44.2 7.40961e-05 0)
(44.2 8.04694e-05 0)
(44.2 8.61585e-05 0)
(44.2 9.12654e-05 0)
(44.2 9.57509e-05 0)
(44.2 9.95162e-05 0)
(44.2 0.00010242 0)
(44.2 0.000104434 0)
(44.2 0.000105515 0)
(44.2 0.000105701 0)
(44.2 0.000105017 0)
(44.2 0.000103467 0)
(44.2 0.000101106 0)
(44.2 9.79567e-05 0)
(44.2 9.41122e-05 0)
(44.2 8.96377e-05 0)
(44.2 8.4654e-05 0)
(44.2 7.92581e-05 0)
(44.2 7.35757e-05 0)
(44.2 6.7711e-05 0)
(44.2 6.17742e-05 0)
(44.2 5.58548e-05 0)
(44.2 5.00353e-05 0)
(44.2 4.43794e-05 0)
(44.2 3.89388e-05 0)
(44.2 3.37504e-05 0)
(44.2 2.88396e-05 0)
(44.2 2.42209e-05 0)
(44.2 1.99005e-05 0)
(44.2 1.58775e-05 0)
(44.2 1.21459e-05 0)
(44.2 8.69579e-06 0)
(44.2 5.51464e-06 0)
(44.2 2.58785e-06 0)
(44.2 5.93052e-07 0)
(44.2 2.82614e-08 0)
(44.2 -4.55591e-08 0)
(44.2 -2.57084e-07 0)
(44.2 -4.82856e-07 0)
(44.2 -7.21632e-07 0)
(44.2 -9.71837e-07 0)
(44.2 -1.23107e-06 0)
(44.2 -1.49633e-06 0)
(44.2 -1.76406e-06 0)
(44.2 -2.02972e-06 0)
(44.2 -2.28836e-06 0)
(44.2 -2.53396e-06 0)
(44.2 -2.7596e-06 0)
(44.2 -2.95667e-06 0)
(44.2 -3.11507e-06 0)
(44.2 -3.22164e-06 0)
(44.2 -3.26187e-06 0)
(44.2 -3.21669e-06 0)
(44.2 -3.06648e-06 0)
(44.2 -2.78554e-06 0)
(44.2 -2.35033e-06 0)
(44.2 -1.72884e-06 0)
(44.2 -8.96343e-07 0)
(44.2 1.83432e-07 0)
(44.2 1.53164e-06 0)
(44.2 3.18268e-06 0)
(44.2 5.14492e-06 0)
(44.2 7.43091e-06 0)
(44.2 1.00172e-05 0)
(44.2 1.28593e-05 0)
(44.2 1.59809e-05 0)
(44.2 1.94543e-05 0)
(44.2 2.35008e-05 0)
(44.2 2.84067e-05 0)
(44.2 3.43947e-05 0)
(44.2 4.15659e-05 0)
(44.2 4.98778e-05 0)
(44.2 5.86972e-05 0)
(44.2 6.69482e-05 0)
(44.2 7.41866e-05 0)
(44.2 8.05872e-05 0)
(44.2 8.63027e-05 0)
(44.2 9.14358e-05 0)
(44.2 9.59459e-05 0)
(44.2 9.9735e-05 0)
(44.2 0.000102662 0)
(44.2 0.000104697 0)
(44.2 0.000105797 0)
(44.2 0.000105999 0)
(44.2 0.000105327 0)
(44.2 0.000103786 0)
(44.2 0.00010143 0)
(44.2 9.82829e-05 0)
(44.2 9.44396e-05 0)
(44.2 8.99663e-05 0)
(44.2 8.49847e-05 0)
(44.2 7.9592e-05 0)
(44.2 7.3914e-05 0)
(44.2 6.80541e-05 0)
(44.2 6.21212e-05 0)
(44.2 5.62034e-05 0)
(44.2 5.03817e-05 0)
(44.2 4.47184e-05 0)
(44.2 3.92647e-05 0)
(44.2 3.4057e-05 0)
(44.2 2.9121e-05 0)
(44.2 2.44718e-05 0)
(44.2 2.01165e-05 0)
(44.2 1.60553e-05 0)
(44.2 1.22835e-05 0)
(44.2 8.79227e-06 0)
(44.2 5.57024e-06 0)
(44.2 2.60407e-06 0)
(44.2 5.91608e-07 0)
(44.1999 2.87235e-08 0)
(44.1999 -4.56722e-08 0)
(44.1999 -2.59394e-07 0)
(44.1999 -4.87452e-07 0)
(44.1999 -7.28683e-07 0)
(44.1999 -9.8152e-07 0)
(44.1999 -1.24361e-06 0)
(44.1999 -1.5118e-06 0)
(44.1999 -1.78237e-06 0)
(44.1999 -2.05114e-06 0)
(44.1999 -2.31315e-06 0)
(44.1999 -2.56229e-06 0)
(44.1999 -2.79166e-06 0)
(44.1999 -2.99264e-06 0)
(44.1999 -3.15515e-06 0)
(44.1999 -3.26605e-06 0)
(44.1999 -3.31076e-06 0)
(44.1999 -3.27025e-06 0)
(44.1999 -3.12496e-06 0)
(44.1999 -2.84909e-06 0)
(44.1999 -2.41913e-06 0)
(44.1999 -1.80296e-06 0)
(44.1999 -9.75855e-07 0)
(44.1999 9.8691e-08 0)
(44.1999 1.44182e-06 0)
(44.1999 3.08822e-06 0)
(44.1999 5.04642e-06 0)
(44.1999 7.32897e-06 0)
(44.1999 9.91325e-06 0)
(44.1999 1.27547e-05 0)
(44.1999 1.58773e-05 0)
(44.1999 1.93558e-05 0)
(44.1999 2.34119e-05 0)
(44.1999 2.83334e-05 0)
(44.1999 3.43428e-05 0)
(44.1999 4.15389e-05 0)
(44.1999 4.98781e-05 0)
(44.1999 5.87257e-05 0)
(44.1999 6.70045e-05 0)
(44.1999 7.42694e-05 0)
(44.1999 8.06946e-05 0)
(44.1999 8.64332e-05 0)
(44.1999 9.15872e-05 0)
(44.1999 9.61177e-05 0)
(44.1999 9.99268e-05 0)
(44.1999 0.000102873 0)
(44.1999 0.000104926 0)
(44.1999 0.000106043 0)
(44.1999 0.000106258 0)
(44.1999 0.000105594 0)
(44.1999 0.000104057 0)
(44.1999 0.0001017 0)
(44.1999 9.85466e-05 0)
(44.1999 9.469e-05 0)
(44.1999 9.0196e-05 0)
(44.1999 8.51863e-05 0)
(44.1999 7.97587e-05 0)
(44.1999 7.40405e-05 0)
(44.1999 6.81369e-05 0)
(44.1999 6.21596e-05 0)
(44.1999 5.61994e-05 0)
(44.1999 5.03397e-05 0)
(44.1999 4.46452e-05 0)
(44.1999 3.91684e-05 0)
(44.1999 3.39463e-05 0)
(44.1999 2.90048e-05 0)
(44.1999 2.43586e-05 0)
(44.1999 2.00135e-05 0)
(44.1999 1.59686e-05 0)
(44.1999 1.22174e-05 0)
(44.1999 8.75009e-06 0)
(44.1999 5.55347e-06 0)
(44.1999 2.6128e-06 0)
(44.1999 6.02325e-07 0)
(44.1999 2.67938e-08 0)
(44.1999 -4.99089e-08 0)
(44.1999 -2.64262e-07 0)
(44.1999 -4.92964e-07 0)
(44.1999 -7.34961e-07 0)
(44.1999 -9.88571e-07 0)
(44.1999 -1.25158e-06 0)
(44.1999 -1.521e-06 0)
(44.1999 -1.7933e-06 0)
(44.1999 -2.06419e-06 0)
(44.1999 -2.32857e-06 0)
(44.1999 -2.58057e-06 0)
(44.1999 -2.81341e-06 0)
(44.1999 -3.01824e-06 0)
(44.1999 -3.18498e-06 0)
(44.1999 -3.30067e-06 0)
(44.1999 -3.35064e-06 0)
(44.1999 -3.31572e-06 0)
(44.1999 -3.17635e-06 0)
(44.1999 -2.90655e-06 0)
(44.1999 -2.4828e-06 0)
(44.1999 -1.87275e-06 0)
(44.1999 -1.05171e-06 0)
(44.1999 1.71159e-08 0)
(44.1999 1.35483e-06 0)
(44.1999 2.99641e-06 0)
(44.1999 4.95038e-06 0)
(44.1999 7.22993e-06 0)
(44.1999 9.81198e-06 0)
(44.1999 1.2652e-05 0)
(44.1999 1.57758e-05 0)
(44.1999 1.92584e-05 0)
(44.1999 2.33239e-05 0)
(44.1999 2.82605e-05 0)
(44.1999 3.42897e-05 0)
(44.1999 4.1509e-05 0)
(44.1999 4.98732e-05 0)
(44.1999 5.87469e-05 0)
(44.1999 6.70514e-05 0)
(44.1999 7.43408e-05 0)
(44.1999 8.07891e-05 0)
(44.1999 8.65486e-05 0)
(44.1999 9.17224e-05 0)
(44.1999 9.62706e-05 0)
(44.1999 0.000100096 0)
(44.1999 0.000103059 0)
(44.1999 0.000105128 0)
(44.1999 0.000106258 0)
(44.1999 0.000106485 0)
(44.1999 0.000105831 0)
(44.1999 0.000104302 0)
(44.1999 0.000101951 0)
(44.1999 9.88025e-05 0)
(44.1999 9.49519e-05 0)
(44.1999 9.04661e-05 0)
(44.1999 8.54675e-05 0)
(44.1999 8.00542e-05 0)
(44.1999 7.43529e-05 0)
(44.1999 6.84672e-05 0)
(44.1999 6.25069e-05 0)
(44.1999 5.65605e-05 0)
(44.1999 5.0709e-05 0)
(44.1999 4.50155e-05 0)
(44.1999 3.95312e-05 0)
(44.1999 3.42927e-05 0)
(44.1999 2.93261e-05 0)
(44.1999 2.46468e-05 0)
(44.1999 2.02621e-05 0)
(44.1999 1.61727e-05 0)
(44.1999 1.23738e-05 0)
(44.1999 8.85706e-06 0)
(44.1999 5.61082e-06 0)
(44.1999 2.62197e-06 0)
(44.1999 5.95089e-07 0)
(44.1999 2.8283e-08 0)
(44.1999 -4.84561e-08 0)
(44.1999 -2.66005e-07 0)
(44.1999 -4.98135e-07 0)
(44.1999 -7.43744e-07 0)
(44.1999 -1.00127e-06 0)
(44.1999 -1.26835e-06 0)
(44.1999 -1.54199e-06 0)
(44.1999 -1.8185e-06 0)
(44.1999 -2.09344e-06 0)
(44.1999 -2.36198e-06 0)
(44.1999 -2.61808e-06 0)
(44.1999 -2.85484e-06 0)
(44.1999 -3.06358e-06 0)
(44.1999 -3.23427e-06 0)
(44.1999 -3.35376e-06 0)
(44.1999 -3.40756e-06 0)
(44.1999 -3.37647e-06 0)
(44.1999 -3.24099e-06 0)
(44.1999 -2.97517e-06 0)
(44.1999 -2.55552e-06 0)
(44.1999 -1.94961e-06 0)
(44.1999 -1.13278e-06 0)
(44.1999 -6.81486e-08 0)
(44.1999 1.26545e-06 0)
(44.1999 2.9032e-06 0)
(44.1999 4.85374e-06 0)
(44.1999 7.13015e-06 0)
(44.1999 9.71024e-06 0)
(44.1999 1.25495e-05 0)
(44.1999 1.56744e-05 0)
(44.1999 1.91618e-05 0)
(44.1999 2.32365e-05 0)
(44.1999 2.81873e-05 0)
(44.1999 3.42353e-05 0)
(44.1999 4.14759e-05 0)
(44.1999 4.98631e-05 0)
(44.1999 5.87608e-05 0)
(44.1999 6.70892e-05 0)
(44.1999 7.44009e-05 0)
(44.1999 8.08692e-05 0)
(44.1999 8.66471e-05 0)
(44.1999 9.18367e-05 0)
(44.1999 9.64003e-05 0)
(44.1999 0.000100242 0)
(44.1999 0.000103219 0)
(44.1999 0.000105304 0)
(44.1999 0.000106447 0)
(44.1999 0.000106686 0)
(44.1999 0.00010604 0)
(44.1999 0.000104514 0)
(44.1999 0.000102162 0)
(44.1999 9.90064e-05 0)
(44.1999 9.51412e-05 0)
(44.1999 9.06324e-05 0)
(44.1999 8.56025e-05 0)
(44.1999 8.01499e-05 0)
(44.1999 7.44031e-05 0)
(44.1999 6.84685e-05 0)
(44.1999 6.24586e-05 0)
(44.1999 5.64655e-05 0)
(44.1999 5.05736e-05 0)
(44.1999 4.48482e-05 0)
(44.1999 3.93424e-05 0)
(44.1999 3.40939e-05 0)
(44.1999 2.91285e-05 0)
(44.1999 2.44607e-05 0)
(44.1999 2.00965e-05 0)
(44.1999 1.60348e-05 0)
(44.1999 1.2269e-05 0)
(44.1999 8.78847e-06 0)
(44.1999 5.58012e-06 0)
(44.1999 2.62923e-06 0)
(44.1999 6.08128e-07 0)
(44.1999 2.52327e-08 0)
(44.1999 -5.42597e-08 0)
(44.1999 -2.71237e-07 0)
(44.1999 -5.02963e-07 0)
(44.1999 -7.48255e-07 0)
(44.1999 -1.00562e-06 0)
(44.1999 -1.27292e-06 0)
(44.1999 -1.54707e-06 0)
(44.1999 -1.82449e-06 0)
(44.1999 -2.101e-06 0)
(44.1999 -2.37172e-06 0)
(44.1999 -2.63064e-06 0)
(44.1999 -2.87097e-06 0)
(44.1999 -3.08399e-06 0)
(44.1999 -3.25965e-06 0)
(44.1999 -3.38477e-06 0)
(44.1999 -3.44473e-06 0)
(44.1999 -3.42026e-06 0)
(44.1999 -3.29176e-06 0)
(44.1999 -3.03305e-06 0)
(44.1999 -2.62051e-06 0)
(44.1999 -2.02149e-06 0)
(44.1999 -1.21125e-06 0)
(44.1999 -1.52632e-07 0)
(44.1999 1.17547e-06 0)
(44.1999 2.80855e-06 0)
(44.1999 4.75519e-06 0)
(44.1999 7.029e-06 0)
(44.1999 9.60737e-06 0)
(44.1999 1.24459e-05 0)
(44.1999 1.55725e-05 0)
(44.1999 1.90646e-05 0)
(44.1999 2.31484e-05 0)
(44.1999 2.81131e-05 0)
(44.1999 3.41783e-05 0)
(44.1999 4.14382e-05 0)
(44.1999 4.98461e-05 0)
(44.1999 5.87652e-05 0)
(44.1999 6.71147e-05 0)
(44.1999 7.44465e-05 0)
(44.1999 8.09338e-05 0)
(44.1999 8.67282e-05 0)
(44.1999 9.19335e-05 0)
(44.1999 9.65111e-05 0)
(44.1999 0.000100366 0)
(44.1999 0.000103357 0)
(44.1999 0.000105454 0)
(44.1999 0.000106611 0)
(44.1999 0.000106861 0)
(44.1999 0.000106225 0)
(44.1999 0.000104708 0)
(44.1999 0.000102363 0)
(44.1999 9.92162e-05 0)
(44.1999 9.53619e-05 0)
(44.1999 9.08678e-05 0)
(44.1999 8.58574e-05 0)
(44.1999 8.04289e-05 0)
(44.1999 7.471e-05 0)
(44.1999 6.88049e-05 0)
(44.1999 6.28235e-05 0)
(44.1999 5.68546e-05 0)
(44.1999 5.09797e-05 0)
(44.1999 4.52618e-05 0)
(44.1999 3.97526e-05 0)
(44.1999 3.44888e-05 0)
(44.1999 2.94968e-05 0)
(44.1999 2.47923e-05 0)
(44.1999 2.03828e-05 0)
(44.1999 1.62692e-05 0)
(44.1999 1.24472e-05 0)
(44.1999 8.90811e-06 0)
(44.1999 5.641e-06 0)
(44.1999 2.63276e-06 0)
(44.1999 5.95793e-07 0)
(44.1999 2.79191e-08 0)
(44.1999 -5.14081e-08 0)
(44.1999 -2.73412e-07 0)
(44.1999 -5.10087e-07 0)
(44.1999 -7.60762e-07 0)
(44.1999 -1.02387e-06 0)
(44.1999 -1.2969e-06 0)
(44.1999 -1.57681e-06 0)
(44.1999 -1.85989e-06 0)
(44.1999 -2.14186e-06 0)
(44.1999 -2.41785e-06 0)
(44.1999 -2.68173e-06 0)
(44.1999 -2.92663e-06 0)
(44.1999 -3.14385e-06 0)
(44.1999 -3.32346e-06 0)
(44.1999 -3.45227e-06 0)
(44.1999 -3.51576e-06 0)
(44.1999 -3.49469e-06 0)
(44.1999 -3.3695e-06 0)
(44.1999 -3.11405e-06 0)
(44.1999 -2.70488e-06 0)
(44.1999 -2.10925e-06 0)
(44.1999 -1.30249e-06 0)
(44.1999 -2.47278e-07 0)
(44.1999 1.07749e-06 0)
(44.1999 2.70747e-06 0)
(44.1999 4.65146e-06 0)
(44.1999 6.92292e-06 0)
(44.1999 9.50023e-06 0)
(44.1999 1.2339e-05 0)
(44.1999 1.54679e-05 0)
(44.1999 1.89658e-05 0)
(44.1999 2.30591e-05 0)
(44.1999 2.80371e-05 0)
(44.1999 3.41186e-05 0)
(44.1999 4.13959e-05 0)
(44.1999 4.98222e-05 0)
(44.1999 5.87606e-05 0)
(44.1999 6.7129e-05 0)
(44.1999 7.44787e-05 0)
(44.1999 8.09816e-05 0)
(44.1999 8.67904e-05 0)
(44.1999 9.20077e-05 0)
(44.1999 9.65974e-05 0)
(44.1999 0.000100465 0)
(44.1999 0.000103469 0)
(44.1999 0.00010558 0)
(44.1999 0.000106749 0)
(44.1999 0.000107009 0)
(44.1999 0.00010638 0)
(44.1999 0.000104867 0)
(44.1999 0.000102521 0)
(44.1999 9.93661e-05 0)
(44.1999 9.54958e-05 0)
(44.1999 9.09763e-05 0)
(44.1999 8.5931e-05 0)
(44.1999 8.04589e-05 0)
(44.1999 7.46892e-05 0)
(44.1999 6.87294e-05 0)
(44.1999 6.26931e-05 0)
(44.1999 5.66733e-05 0)
(44.1999 5.07551e-05 0)
(44.1999 4.50048e-05 0)
(44.1999 3.94758e-05 0)
(44.1999 3.42062e-05 0)
(44.1999 2.92218e-05 0)
(44.1999 2.45372e-05 0)
(44.1999 2.01582e-05 0)
(44.1999 1.60836e-05 0)
(44.1999 1.23066e-05 0)
(44.1999 8.81645e-06 0)
(44.1999 5.59964e-06 0)
(44.1999 2.6411e-06 0)
(44.1999 6.12237e-07 0)
(44.1999 2.36908e-08 0)
(44.1999 -5.88303e-08 0)
(44.1999 -2.79083e-07 0)
(44.1999 -5.1471e-07 0)
(44.1999 -7.6422e-07 0)
(44.1999 -1.0261e-06 0)
(44.1999 -1.29849e-06 0)
(44.1999 -1.57821e-06 0)
(44.1999 -1.8618e-06 0)
(44.1999 -2.14499e-06 0)
(44.1999 -2.42301e-06 0)
(44.1999 -2.68996e-06 0)
(44.1999 -2.93899e-06 0)
(44.1999 -3.16136e-06 0)
(44.1999 -3.347e-06 0)
(44.1999 -3.48271e-06 0)
(44.1999 -3.55378e-06 0)
(44.1999 -3.54083e-06 0)
(44.1999 -3.42415e-06 0)
(44.1999 -3.17732e-06 0)
(44.1999 -2.77665e-06 0)
(44.1999 -2.18911e-06 0)
(44.1999 -1.38988e-06 0)
(44.1999 -3.41371e-07 0)
(44.1999 9.77549e-07 0)
(44.1999 2.60283e-06 0)
(44.1999 4.54317e-06 0)
(44.1999 6.81255e-06 0)
(44.1999 9.38894e-06 0)
(44.1999 1.22283e-05 0)
(44.1999 1.53603e-05 0)
(44.1999 1.88642e-05 0)
(44.1999 2.29674e-05 0)
(44.1999 2.79584e-05 0)
(44.1999 3.40547e-05 0)
(44.1999 4.13475e-05 0)
(44.1999 4.97897e-05 0)
(44.1999 5.87444e-05 0)
(44.1999 6.71292e-05 0)
(44.1999 7.44944e-05 0)
(44.1999 8.10121e-05 0)
(44.1999 8.68336e-05 0)
(44.1999 9.20632e-05 0)
(44.1999 9.66637e-05 0)
(44.1999 0.000100542 0)
(44.1999 0.000103557 0)
(44.1999 0.000105679 0)
(44.1999 0.000106859 0)
(44.1999 0.00010713 0)
(44.1999 0.000106511 0)
(44.1999 0.000105007 0)
(44.1999 0.000102671 0)
(44.1999 9.95279e-05 0)
(44.1999 9.56733e-05 0)
(44.1999 9.11753e-05 0)
(44.1999 8.61578e-05 0)
(44.1999 8.07199e-05 0)
(44.1999 7.49894e-05 0)
(44.1999 6.90709e-05 0)
(44.1999 6.30747e-05 0)
(44.1999 5.70896e-05 0)
(44.1999 5.11975e-05 0)
(44.1999 4.54613e-05 0)
(44.1999 3.99329e-05 0)
(44.1999 3.46494e-05 0)
(44.1999 2.96373e-05 0)
(44.1999 2.49123e-05 0)
(44.1999 2.04826e-05 0)
(44.1999 1.6349e-05 0)
(44.1999 1.25075e-05 0)
(44.1999 8.94998e-06 0)
(44.1999 5.66523e-06 0)
(44.1999 2.64017e-06 0)
(44.1999 5.95408e-07 0)
(44.1999 2.75001e-08 0)
(44.1999 -5.46051e-08 0)
(44.1999 -2.81889e-07 0)
(44.1999 -5.24485e-07 0)
(44.1999 -7.8119e-07 0)
(44.1999 -1.0509e-06 0)
(44.1999 -1.33102e-06 0)
(44.1999 -1.61836e-06 0)
(44.1999 -1.9095e-06 0)
(44.1999 -2.19985e-06 0)
(44.1999 -2.48452e-06 0)
(44.1999 -2.75754e-06 0)
(44.1999 -3.01203e-06 0)
(44.1999 -3.23927e-06 0)
(44.1999 -3.42928e-06 0)
(44.1999 -3.5688e-06 0)
(44.1999 -3.64335e-06 0)
(44.1999 -3.63348e-06 0)
(44.1999 -3.51966e-06 0)
(44.1999 -3.27559e-06 0)
(44.1999 -2.87768e-06 0)
(44.1999 -2.2929e-06 0)
(44.1999 -1.49655e-06 0)
(44.1999 -4.50909e-07 0)
(44.1999 8.65281e-07 0)
(44.1999 2.48805e-06 0)
(44.1999 4.42644e-06 0)
(44.1999 6.69427e-06 0)
(44.1999 9.27064e-06 0)
(44.1999 1.21116e-05 0)
(44.1999 1.52476e-05 0)
(44.1999 1.87589e-05 0)
(44.1999 2.28727e-05 0)
(44.1999 2.78765e-05 0)
(44.1999 3.39868e-05 0)
(44.1999 4.12933e-05 0)
(44.1999 4.9749e-05 0)
(44.1999 5.87179e-05 0)
(44.1999 6.71167e-05 0)
(44.1999 7.44951e-05 0)
(44.1999 8.10244e-05 0)
(44.1999 8.68566e-05 0)
(44.1999 9.20945e-05 0)
(44.1999 9.67038e-05 0)
(44.1999 0.000100591 0)
(44.1999 0.000103617 0)
(44.1999 0.000105751 0)
(44.1999 0.000106941 0)
(44.1999 0.000107221 0)
(44.1999 0.000106609 0)
(44.1999 0.000105108 0)
(44.1999 0.00010277 0)
(44.1999 9.96177e-05 0)
(44.1999 9.57458e-05 0)
(44.1999 9.12202e-05 0)
(44.1999 8.61647e-05 0)
(44.1999 8.06788e-05 0)
(44.1999 7.48926e-05 0)
(44.1999 6.89141e-05 0)
(44.1999 6.28582e-05 0)
(44.1999 5.68183e-05 0)
(44.1999 5.08804e-05 0)
(44.1999 4.51114e-05 0)
(44.1999 3.95653e-05 0)
(44.1999 3.42803e-05 0)
(44.1999 2.92821e-05 0)
(44.1999 2.45858e-05 0)
(44.1999 2.0197e-05 0)
(44.1999 1.6114e-05 0)
(44.1999 1.23299e-05 0)
(44.1999 8.83371e-06 0)
(44.1999 5.6119e-06 0)
(44.1999 2.64919e-06 0)
(44.1999 6.15309e-07 0)
(44.1999 2.21489e-08 0)
(44.1999 -6.40616e-08 0)
(44.1999 -2.8861e-07 0)
(44.1999 -5.28565e-07 0)
(44.1999 -7.83255e-07 0)
(44.1999 -1.05107e-06 0)
(44.1999 -1.32961e-06 0)
(44.1999 -1.61621e-06 0)
(44.1999 -1.90744e-06 0)
(44.1999 -2.19897e-06 0)
(44.1999 -2.48594e-06 0)
(44.1999 -2.76257e-06 0)
(44.1999 -3.022e-06 0)
(44.1999 -3.25546e-06 0)
(44.1999 -3.4528e-06 0)
(44.1999 -3.60075e-06 0)
(44.1999 -3.68459e-06 0)
(44.1999 -3.68468e-06 0)
(44.1999 -3.58118e-06 0)
(44.1999 -3.34747e-06 0)
(44.1999 -2.95964e-06 0)
(44.1999 -2.38437e-06 0)
(44.1999 -1.59669e-06 0)
(44.1999 -5.58584e-07 0)
(44.1999 7.51216e-07 0)
(44.1999 2.36903e-06 0)
(44.1999 4.30387e-06 0)
(44.1999 6.57006e-06 0)
(44.1999 9.14637e-06 0)
(44.1999 1.19894e-05 0)
(44.1999 1.51303e-05 0)
(44.1999 1.86495e-05 0)
(44.1999 2.27741e-05 0)
(44.1999 2.77904e-05 0)
(44.1999 3.39133e-05 0)
(44.1999 4.12315e-05 0)
(44.1999 4.96984e-05 0)
(44.1999 5.86785e-05 0)
(44.1999 6.70887e-05 0)
(44.1999 7.44783e-05 0)
(44.1999 8.10184e-05 0)
(44.1999 8.68597e-05 0)
(44.1999 9.21065e-05 0)
(44.1999 9.6723e-05 0)
(44.1999 0.000100618 0)
(44.1999 0.000103652 0)
(44.1999 0.000105793 0)
(44.1999 0.000106993 0)
(44.1999 0.000107282 0)
(44.1999 0.000106679 0)
(44.1999 0.000105188 0)
(44.1999 0.000102861 0)
(44.1999 9.97235e-05 0)
(44.1999 9.58721e-05 0)
(44.1999 9.13746e-05 0)
(44.1999 8.63557e-05 0)
(44.1999 8.09145e-05 0)
(44.1999 7.51793e-05 0)
(44.1999 6.92545e-05 0)
(44.1999 6.32509e-05 0)
(44.1999 5.7257e-05 0)
(44.1999 5.13548e-05 0)
(44.1999 4.56073e-05 0)
(44.1999 4.00665e-05 0)
(44.1999 3.47695e-05 0)
(44.1999 2.9743e-05 0)
(44.1999 2.50031e-05 0)
(44.1999 2.05582e-05 0)
(44.1999 1.64094e-05 0)
(44.1999 1.25529e-05 0)
(44.1999 8.98079e-06 0)
(44.1999 5.68214e-06 0)
(44.1999 2.64381e-06 0)
(44.1999 5.9401e-07 0)
(44.1999 2.70715e-08 0)
(44.1999 -5.86189e-08 0)
(44.1999 -2.92247e-07 0)
(44.1999 -5.41743e-07 0)
(44.1999 -8.06135e-07 0)
(44.1999 -1.08387e-06 0)
(44.1999 -1.37257e-06 0)
(44.1999 -1.66897e-06 0)
(44.1999 -1.96952e-06 0)
(44.1999 -2.26984e-06 0)
(44.1999 -2.56493e-06 0)
(44.1999 -2.84885e-06 0)
(44.1999 -3.11464e-06 0)
(44.1999 -3.3536e-06 0)
(44.1999 -3.55574e-06 0)
(44.1999 -3.70764e-06 0)
(44.1999 -3.79486e-06 0)
(44.1999 -3.79782e-06 0)
(44.1999 -3.69684e-06 0)
(44.1999 -3.4654e-06 0)
(44.1999 -3.07984e-06 0)
(44.1999 -2.50684e-06 0)
(44.1999 -1.72149e-06 0)
(44.1999 -6.85755e-07 0)
(44.1999 6.21808e-07 0)
(44.1999 2.23758e-06 0)
(44.1999 4.17102e-06 0)
(44.1999 6.43635e-06 0)