/*--------------------------------*- C++ -*----------------------------------*\
| =========                 |                                                 |
| \\      /  F ield         | OpenFOAM: The Open Source CFD Toolbox           |
|  \\    /   O peration     | Version:  5.x                                   |
|   \\  /    A nd           | Web:      www.OpenFOAM.org                      |
|    \\/     M anipulation  |                                                 |
\*---------------------------------------------------------------------------*/
FoamFile
{
    version     2.0;
    format      ascii;
    class       volVectorField;
    location    "100";
    object      C;
}
// * * * * * * * * * * * * * * * * * * * * * * * * * * * * * * * * * * * * * //

dimensions      [0 1 0 0 0 0 0];

internalField   nonuniform List<vector> 
20540
(
(-1.55331 0.0127133 0.00635)
(-1.42631 0.0127133 0.00635)
(-1.55331 0.0127425 0.00635)
(-1.42631 0.0127425 0.00635)
(-1.55331 0.012778 0.00635)
(-1.42631 0.012778 0.00635)
(-1.55331 0.0128208 0.00635)
(-1.42631 0.0128208 0.00635)
(-1.55331 0.0128727 0.00635)
(-1.42631 0.0128727 0.00635)
(-1.55331 0.0129354 0.00635)
(-1.42631 0.0129354 0.00635)
(-1.55331 0.0130113 0.00635)
(-1.42631 0.0130113 0.00635)
(-1.55331 0.0131031 0.00635)
(-1.42631 0.0131031 0.00635)
(-1.55331 0.0132141 0.00635)
(-1.42631 0.0132141 0.00635)
(-1.55331 0.0133485 0.00635)
(-1.42631 0.0133485 0.00635)
(-1.55331 0.013511 0.00635)
(-1.42631 0.013511 0.00635)
(-1.55331 0.0137076 0.00635)
(-1.42631 0.0137076 0.00635)
(-1.55331 0.0139454 0.00635)
(-1.42631 0.0139454 0.00635)
(-1.55331 0.0142331 0.00635)
(-1.42631 0.0142331 0.00635)
(-1.55331 0.0145812 0.00635)
(-1.42631 0.0145812 0.00635)
(-1.55331 0.0150022 0.00635)
(-1.42631 0.0150022 0.00635)
(-1.55331 0.0155116 0.00635)
(-1.42631 0.0155116 0.00635)
(-1.55331 0.0161277 0.00635)
(-1.42631 0.0161277 0.00635)
(-1.55331 0.0168731 0.00635)
(-1.42631 0.0168731 0.00635)
(-1.55331 0.0177749 0.00635)
(-1.42631 0.0177749 0.00635)
(-1.55331 0.0188657 0.00635)
(-1.42631 0.0188657 0.00635)
(-1.55331 0.0201853 0.00635)
(-1.42631 0.0201853 0.00635)
(-1.55331 0.0217817 0.00635)
(-1.42631 0.0217817 0.00635)
(-1.55331 0.0237129 0.00635)
(-1.42631 0.0237129 0.00635)
(-1.55331 0.0260492 0.00635)
(-1.42631 0.0260492 0.00635)
(-1.55331 0.0288754 0.00635)
(-1.42631 0.0288754 0.00635)
(-1.55331 0.0322943 0.00635)
(-1.42631 0.0322943 0.00635)
(-1.55331 0.0364302 0.00635)
(-1.42631 0.0364302 0.00635)
(-1.55331 0.0414336 0.00635)
(-1.42631 0.0414336 0.00635)
(-1.55331 0.0474864 0.00635)
(-1.42631 0.0474864 0.00635)
(-1.55331 0.053975 0.00635)
(-1.42631 0.053975 0.00635)
(-1.55331 0.060325 0.00635)
(-1.42631 0.060325 0.00635)
(-1.55331 0.066675 0.00635)
(-1.42631 0.066675 0.00635)
(-1.55331 0.073025 0.00635)
(-1.42631 0.073025 0.00635)
(-1.55331 0.0794131 0.00635)
(-1.42631 0.0794131 0.00635)
(-1.55331 0.0852991 0.00635)
(-1.42631 0.0852991 0.00635)
(-1.55331 0.0901957 0.00635)
(-1.42631 0.0901957 0.00635)
(-1.55331 0.0942691 0.00635)
(-1.42631 0.0942691 0.00635)
(-1.55331 0.0976578 0.00635)
(-1.42631 0.0976578 0.00635)
(-1.55331 0.100477 0.00635)
(-1.42631 0.100477 0.00635)
(-1.55331 0.102822 0.00635)
(-1.42631 0.102822 0.00635)
(-1.55331 0.104773 0.00635)
(-1.42631 0.104773 0.00635)
(-1.55331 0.106396 0.00635)
(-1.42631 0.106396 0.00635)
(-1.55331 0.107746 0.00635)
(-1.42631 0.107746 0.00635)
(-1.55331 0.108869 0.00635)
(-1.42631 0.108869 0.00635)
(-1.55331 0.109803 0.00635)
(-1.42631 0.109803 0.00635)
(-1.55331 0.110581 0.00635)
(-1.42631 0.110581 0.00635)
(-1.55331 0.111227 0.00635)
(-1.42631 0.111227 0.00635)
(-1.55331 0.111765 0.00635)
(-1.42631 0.111765 0.00635)
(-1.55331 0.112213 0.00635)
(-1.42631 0.112213 0.00635)
(-1.55331 0.112585 0.00635)
(-1.42631 0.112585 0.00635)
(-1.55331 0.112895 0.00635)
(-1.42631 0.112895 0.00635)
(-1.55331 0.113152 0.00635)
(-1.42631 0.113152 0.00635)
(-1.55331 0.113367 0.00635)
(-1.42631 0.113367 0.00635)
(-1.55331 0.113545 0.00635)
(-1.42631 0.113545 0.00635)
(-1.55331 0.113693 0.00635)
(-1.42631 0.113693 0.00635)
(-1.55331 0.113817 0.00635)
(-1.42631 0.113817 0.00635)
(-1.55331 0.113919 0.00635)
(-1.42631 0.113919 0.00635)
(-1.55331 0.114005 0.00635)
(-1.42631 0.114005 0.00635)
(-1.55331 0.114076 0.00635)
(-1.42631 0.114076 0.00635)
(-1.55331 0.114135 0.00635)
(-1.42631 0.114135 0.00635)
(-1.55331 0.114184 0.00635)
(-1.42631 0.114184 0.00635)
(-1.55331 0.114225 0.00635)
(-1.42631 0.114225 0.00635)
(-1.55331 0.114259 0.00635)
(-1.42631 0.114259 0.00635)
(-1.55331 0.114287 0.00635)
(-1.42631 0.114287 0.00635)
(-1.36984 0.0127133 0.00635)
(-1.31652 0.0127133 0.00635)
(-1.26514 0.0127133 0.00635)
(-1.21564 0.0127133 0.00635)
(-1.16794 0.0127133 0.00635)
(-1.12198 0.0127133 0.00635)
(-1.07769 0.0127133 0.00635)
(-1.03502 0.0127133 0.00635)
(-0.993906 0.0127133 0.00635)
(-0.95429 0.0127133 0.00635)
(-0.916118 0.0127133 0.00635)
(-0.879338 0.0127133 0.00635)
(-0.843898 0.0127133 0.00635)
(-0.809751 0.0127133 0.00635)
(-0.776848 0.0127133 0.00635)
(-0.745145 0.0127133 0.00635)
(-0.714598 0.0127133 0.00635)
(-0.685165 0.0127133 0.00635)
(-0.656804 0.0127133 0.00635)
(-0.629478 0.0127133 0.00635)
(-0.603148 0.0127133 0.00635)
(-0.577777 0.0127133 0.00635)
(-0.553332 0.0127133 0.00635)
(-0.529778 0.0127133 0.00635)
(-0.507082 0.0127133 0.00635)
(-0.485214 0.0127133 0.00635)
(-0.464144 0.0127133 0.00635)
(-0.443841 0.0127133 0.00635)
(-0.424279 0.0127133 0.00635)
(-0.405429 0.0127133 0.00635)
(-0.387267 0.0127133 0.00635)
(-0.369768 0.0127133 0.00635)
(-0.352906 0.0127133 0.00635)
(-0.336659 0.0127133 0.00635)
(-0.321004 0.0127133 0.00635)
(-0.30592 0.0127133 0.00635)
(-0.291385 0.0127133 0.00635)
(-0.277381 0.0127133 0.00635)
(-0.263887 0.0127133 0.00635)
(-0.250886 0.0127133 0.00635)
(-0.238358 0.0127133 0.00635)
(-0.226287 0.0127133 0.00635)
(-0.214656 0.0127133 0.00635)
(-0.203449 0.0127133 0.00635)
(-0.192651 0.0127133 0.00635)
(-0.182246 0.0127133 0.00635)
(-0.172221 0.0127133 0.00635)
(-0.162561 0.0127133 0.00635)
(-0.153253 0.0127133 0.00635)
(-0.144285 0.0127133 0.00635)
(-0.135643 0.0127133 0.00635)
(-0.127317 0.0127133 0.00635)
(-0.119294 0.0127133 0.00635)
(-0.111564 0.0127133 0.00635)
(-0.104115 0.0127133 0.00635)
(-0.0969384 0.0127133 0.00635)
(-0.0900231 0.0127133 0.00635)
(-0.0833599 0.0127133 0.00635)
(-0.0769397 0.0127133 0.00635)
(-0.0707535 0.0127133 0.00635)
(-0.0647929 0.0127133 0.00635)
(-0.0590495 0.0127133 0.00635)
(-0.0535156 0.0127133 0.00635)
(-0.0490611 0.0127133 0.00635)
(-0.0456683 0.0127133 0.00635)
(-0.0424415 0.0127133 0.00635)
(-0.0393727 0.0127133 0.00635)
(-0.0364539 0.0127133 0.00635)
(-0.033678 0.0127133 0.00635)
(-0.0310379 0.0127133 0.00635)
(-0.028527 0.0127133 0.00635)
(-0.0261389 0.0127133 0.00635)
(-0.0238677 0.0127133 0.00635)
(-0.0217076 0.0127133 0.00635)
(-0.0196531 0.0127133 0.00635)
(-0.0176993 0.0127133 0.00635)
(-0.015841 0.0127133 0.00635)
(-0.0140736 0.0127133 0.00635)
(-0.0123927 0.0127133 0.00635)
(-0.010794 0.0127133 0.00635)
(-0.0092736 0.0127133 0.00635)
(-0.00782755 0.0127133 0.00635)
(-0.00645226 0.0127133 0.00635)
(-0.00514426 0.0127133 0.00635)
(-0.00390026 0.0127133 0.00635)
(-0.00271712 0.0127133 0.00635)
(-0.00159187 0.0127133 0.00635)
(-0.000521677 0.0127133 0.00635)
(-1.36984 0.0127425 0.00635)
(-1.31652 0.0127425 0.00635)
(-1.26514 0.0127425 0.00635)
(-1.21564 0.0127425 0.00635)
(-1.16794 0.0127425 0.00635)
(-1.12198 0.0127425 0.00635)
(-1.07769 0.0127425 0.00635)
(-1.03502 0.0127425 0.00635)
(-0.993906 0.0127425 0.00635)
(-0.95429 0.0127425 0.00635)
(-0.916118 0.0127425 0.00635)
(-0.879338 0.0127425 0.00635)
(-0.843898 0.0127425 0.00635)
(-0.809751 0.0127425 0.00635)
(-0.776848 0.0127425 0.00635)
(-0.745145 0.0127425 0.00635)
(-0.714598 0.0127425 0.00635)
(-0.685165 0.0127425 0.00635)
(-0.656804 0.0127425 0.00635)
(-0.629478 0.0127425 0.00635)
(-0.603148 0.0127425 0.00635)
(-0.577777 0.0127425 0.00635)
(-0.553332 0.0127425 0.00635)
(-0.529778 0.0127425 0.00635)
(-0.507082 0.0127425 0.00635)
(-0.485214 0.0127425 0.00635)
(-0.464144 0.0127425 0.00635)
(-0.443841 0.0127425 0.00635)
(-0.424279 0.0127425 0.00635)
(-0.405429 0.0127425 0.00635)
(-0.387267 0.0127425 0.00635)
(-0.369768 0.0127425 0.00635)
(-0.352906 0.0127425 0.00635)
(-0.336659 0.0127425 0.00635)
(-0.321004 0.0127425 0.00635)
(-0.30592 0.0127425 0.00635)
(-0.291385 0.0127425 0.00635)
(-0.277381 0.0127425 0.00635)
(-0.263887 0.0127425 0.00635)
(-0.250886 0.0127425 0.00635)
(-0.238358 0.0127425 0.00635)
(-0.226287 0.0127425 0.00635)
(-0.214656 0.0127425 0.00635)
(-0.203449 0.0127425 0.00635)
(-0.192651 0.0127425 0.00635)
(-0.182246 0.0127425 0.00635)
(-0.172221 0.0127425 0.00635)
(-0.162561 0.0127425 0.00635)
(-0.153253 0.0127425 0.00635)
(-0.144285 0.0127425 0.00635)
(-0.135643 0.0127425 0.00635)
(-0.127317 0.0127425 0.00635)
(-0.119294 0.0127425 0.00635)
(-0.111564 0.0127425 0.00635)
(-0.104115 0.0127425 0.00635)
(-0.0969384 0.0127425 0.00635)
(-0.0900231 0.0127425 0.00635)
(-0.0833599 0.0127425 0.00635)
(-0.0769397 0.0127425 0.00635)
(-0.0707535 0.0127425 0.00635)
(-0.0647929 0.0127425 0.00635)
(-0.0590495 0.0127425 0.00635)
(-0.0535156 0.0127425 0.00635)
(-0.0490611 0.0127425 0.00635)
(-0.0456683 0.0127425 0.00635)
(-0.0424415 0.0127425 0.00635)
(-0.0393727 0.0127425 0.00635)
(-0.0364539 0.0127425 0.00635)
(-0.033678 0.0127425 0.00635)
(-0.0310379 0.0127425 0.00635)
(-0.028527 0.0127425 0.00635)
(-0.0261389 0.0127425 0.00635)
(-0.0238677 0.0127425 0.00635)
(-0.0217076 0.0127425 0.00635)
(-0.0196531 0.0127425 0.00635)
(-0.0176993 0.0127425 0.00635)
(-0.015841 0.0127425 0.00635)
(-0.0140736 0.0127425 0.00635)
(-0.0123927 0.0127425 0.00635)
(-0.010794 0.0127425 0.00635)
(-0.0092736 0.0127425 0.00635)
(-0.00782755 0.0127425 0.00635)
(-0.00645226 0.0127425 0.00635)
(-0.00514426 0.0127425 0.00635)
(-0.00390026 0.0127425 0.00635)
(-0.00271712 0.0127425 0.00635)
(-0.00159187 0.0127425 0.00635)
(-0.000521677 0.0127425 0.00635)
(-1.36984 0.012778 0.00635)
(-1.31652 0.012778 0.00635)
(-1.26514 0.012778 0.00635)
(-1.21564 0.012778 0.00635)
(-1.16794 0.012778 0.00635)
(-1.12198 0.012778 0.00635)
(-1.07769 0.012778 0.00635)
(-1.03502 0.012778 0.00635)
(-0.993906 0.012778 0.00635)
(-0.95429 0.012778 0.00635)
(-0.916118 0.012778 0.00635)
(-0.879338 0.012778 0.00635)
(-0.843898 0.012778 0.00635)
(-0.809751 0.012778 0.00635)
(-0.776848 0.012778 0.00635)
(-0.745145 0.012778 0.00635)
(-0.714598 0.012778 0.00635)
(-0.685165 0.012778 0.00635)
(-0.656804 0.012778 0.00635)
(-0.629478 0.012778 0.00635)
(-0.603148 0.012778 0.00635)
(-0.577777 0.012778 0.00635)
(-0.553332 0.012778 0.00635)
(-0.529778 0.012778 0.00635)
(-0.507082 0.012778 0.00635)
(-0.485214 0.012778 0.00635)
(-0.464144 0.012778 0.00635)
(-0.443841 0.012778 0.00635)
(-0.424279 0.012778 0.00635)
(-0.405429 0.012778 0.00635)
(-0.387267 0.012778 0.00635)
(-0.369768 0.012778 0.00635)
(-0.352906 0.012778 0.00635)
(-0.336659 0.012778 0.00635)
(-0.321004 0.012778 0.00635)
(-0.30592 0.012778 0.00635)
(-0.291385 0.012778 0.00635)
(-0.277381 0.012778 0.00635)
(-0.263887 0.012778 0.00635)
(-0.250886 0.012778 0.00635)
(-0.238358 0.012778 0.00635)
(-0.226287 0.012778 0.00635)
(-0.214656 0.012778 0.00635)
(-0.203449 0.012778 0.00635)
(-0.192651 0.012778 0.00635)
(-0.182246 0.012778 0.00635)
(-0.172221 0.012778 0.00635)
(-0.162561 0.012778 0.00635)
(-0.153253 0.012778 0.00635)
(-0.144285 0.012778 0.00635)
(-0.135643 0.012778 0.00635)
(-0.127317 0.012778 0.00635)
(-0.119294 0.012778 0.00635)
(-0.111564 0.012778 0.00635)
(-0.104115 0.012778 0.00635)
(-0.0969384 0.012778 0.00635)
(-0.0900231 0.012778 0.00635)
(-0.0833599 0.012778 0.00635)
(-0.0769397 0.012778 0.00635)
(-0.0707535 0.012778 0.00635)
(-0.0647929 0.012778 0.00635)
(-0.0590495 0.012778 0.00635)
(-0.0535156 0.012778 0.00635)
(-0.0490611 0.012778 0.00635)
(-0.0456683 0.012778 0.00635)
(-0.0424415 0.012778 0.00635)
(-0.0393727 0.012778 0.00635)
(-0.0364539 0.012778 0.00635)
(-0.033678 0.012778 0.00635)
(-0.0310379 0.012778 0.00635)
(-0.028527 0.012778 0.00635)
(-0.0261389 0.012778 0.00635)
(-0.0238677 0.012778 0.00635)
(-0.0217076 0.012778 0.00635)
(-0.0196531 0.012778 0.00635)
(-0.0176993 0.012778 0.00635)
(-0.015841 0.012778 0.00635)
(-0.0140736 0.012778 0.00635)
(-0.0123927 0.012778 0.00635)
(-0.010794 0.012778 0.00635)
(-0.0092736 0.012778 0.00635)
(-0.00782755 0.012778 0.00635)
(-0.00645226 0.012778 0.00635)
(-0.00514426 0.012778 0.00635)
(-0.00390026 0.012778 0.00635)
(-0.00271712 0.012778 0.00635)
(-0.00159187 0.012778 0.00635)
(-0.000521677 0.012778 0.00635)
(-1.36984 0.0128208 0.00635)
(-1.31652 0.0128208 0.00635)
(-1.26514 0.0128208 0.00635)
(-1.21564 0.0128208 0.00635)
(-1.16794 0.0128208 0.00635)
(-1.12198 0.0128208 0.00635)
(-1.07769 0.0128208 0.00635)
(-1.03502 0.0128208 0.00635)
(-0.993906 0.0128208 0.00635)
(-0.95429 0.0128208 0.00635)
(-0.916118 0.0128208 0.00635)
(-0.879338 0.0128208 0.00635)
(-0.843898 0.0128208 0.00635)
(-0.809751 0.0128208 0.00635)
(-0.776848 0.0128208 0.00635)
(-0.745145 0.0128208 0.00635)
(-0.714598 0.0128208 0.00635)
(-0.685165 0.0128208 0.00635)
(-0.656804 0.0128208 0.00635)
(-0.629478 0.0128208 0.00635)
(-0.603148 0.0128208 0.00635)
(-0.577777 0.0128208 0.00635)
(-0.553332 0.0128208 0.00635)
(-0.529778 0.0128208 0.00635)
(-0.507082 0.0128208 0.00635)
(-0.485214 0.0128208 0.00635)
(-0.464144 0.0128208 0.00635)
(-0.443841 0.0128208 0.00635)
(-0.424279 0.0128208 0.00635)
(-0.405429 0.0128208 0.00635)
(-0.387267 0.0128208 0.00635)
(-0.369768 0.0128208 0.00635)
(-0.352906 0.0128208 0.00635)
(-0.336659 0.0128208 0.00635)
(-0.321004 0.0128208 0.00635)
(-0.30592 0.0128208 0.00635)
(-0.291385 0.0128208 0.00635)
(-0.277381 0.0128208 0.00635)
(-0.263887 0.0128208 0.00635)
(-0.250886 0.0128208 0.00635)
(-0.238358 0.0128208 0.00635)
(-0.226287 0.0128208 0.00635)
(-0.214656 0.0128208 0.00635)
(-0.203449 0.0128208 0.00635)
(-0.192651 0.0128208 0.00635)
(-0.182246 0.0128208 0.00635)
(-0.172221 0.0128208 0.00635)
(-0.162561 0.0128208 0.00635)
(-0.153253 0.0128208 0.00635)
(-0.144285 0.0128208 0.00635)
(-0.135643 0.0128208 0.00635)
(-0.127317 0.0128208 0.00635)
(-0.119294 0.0128208 0.00635)
(-0.111564 0.0128208 0.00635)
(-0.104115 0.0128208 0.00635)
(-0.0969384 0.0128208 0.00635)
(-0.0900231 0.0128208 0.00635)
(-0.0833599 0.0128208 0.00635)
(-0.0769397 0.0128208 0.00635)
(-0.0707535 0.0128208 0.00635)
(-0.0647929 0.0128208 0.00635)
(-0.0590495 0.0128208 0.00635)
(-0.0535156 0.0128208 0.00635)
(-0.0490611 0.0128208 0.00635)
(-0.0456683 0.0128208 0.00635)
(-0.0424415 0.0128208 0.00635)
(-0.0393727 0.0128208 0.00635)
(-0.0364539 0.0128208 0.00635)
(-0.033678 0.0128208 0.00635)
(-0.0310379 0.0128208 0.00635)
(-0.028527 0.0128208 0.00635)
(-0.0261389 0.0128208 0.00635)
(-0.0238677 0.0128208 0.00635)
(-0.0217076 0.0128208 0.00635)
(-0.0196531 0.0128208 0.00635)
(-0.0176993 0.0128208 0.00635)
(-0.015841 0.0128208 0.00635)
(-0.0140736 0.0128208 0.00635)
(-0.0123927 0.0128208 0.00635)
(-0.010794 0.0128208 0.00635)
(-0.0092736 0.0128208 0.00635)
(-0.00782755 0.0128208 0.00635)
(-0.00645226 0.0128208 0.00635)
(-0.00514426 0.0128208 0.00635)
(-0.00390026 0.0128208 0.00635)
(-0.00271712 0.0128208 0.00635)
(-0.00159187 0.0128208 0.00635)
(-0.000521677 0.0128208 0.00635)
(-1.36984 0.0128727 0.00635)
(-1.31652 0.0128727 0.00635)
(-1.26514 0.0128727 0.00635)
(-1.21564 0.0128727 0.00635)
(-1.16794 0.0128727 0.00635)
(-1.12198 0.0128727 0.00635)
(-1.07769 0.0128727 0.00635)
(-1.03502 0.0128727 0.00635)
(-0.993906 0.0128727 0.00635)
(-0.95429 0.0128727 0.00635)
(-0.916118 0.0128727 0.00635)
(-0.879338 0.0128727 0.00635)
(-0.843898 0.0128727 0.00635)
(-0.809751 0.0128727 0.00635)
(-0.776848 0.0128727 0.00635)
(-0.745145 0.0128727 0.00635)
(-0.714598 0.0128727 0.00635)
(-0.685165 0.0128727 0.00635)
(-0.656804 0.0128727 0.00635)
(-0.629478 0.0128727 0.00635)
(-0.603148 0.0128727 0.00635)
(-0.577777 0.0128727 0.00635)
(-0.553332 0.0128727 0.00635)
(-0.529778 0.0128727 0.00635)
(-0.507082 0.0128727 0.00635)
(-0.485214 0.0128727 0.00635)
(-0.464144 0.0128727 0.00635)
(-0.443841 0.0128727 0.00635)
(-0.424279 0.0128727 0.00635)
(-0.405429 0.0128727 0.00635)
(-0.387267 0.0128727 0.00635)
(-0.369768 0.0128727 0.00635)
(-0.352906 0.0128727 0.00635)
(-0.336659 0.0128727 0.00635)
(-0.321004 0.0128727 0.00635)
(-0.30592 0.0128727 0.00635)
(-0.291385 0.0128727 0.00635)
(-0.277381 0.0128727 0.00635)
(-0.263887 0.0128727 0.00635)
(-0.250886 0.0128727 0.00635)
(-0.238358 0.0128727 0.00635)
(-0.226287 0.0128727 0.00635)
(-0.214656 0.0128727 0.00635)
(-0.203449 0.0128727 0.00635)
(-0.192651 0.0128727 0.00635)
(-0.182246 0.0128727 0.00635)
(-0.172221 0.0128727 0.00635)
(-0.162561 0.0128727 0.00635)
(-0.153253 0.0128727 0.00635)
(-0.144285 0.0128727 0.00635)
(-0.135643 0.0128727 0.00635)
(-0.127317 0.0128727 0.00635)
(-0.119294 0.0128727 0.00635)
(-0.111564 0.0128727 0.00635)
(-0.104115 0.0128727 0.00635)
(-0.0969384 0.0128727 0.00635)
(-0.0900231 0.0128727 0.00635)
(-0.0833599 0.0128727 0.00635)
(-0.0769397 0.0128727 0.00635)
(-0.0707535 0.0128727 0.00635)
(-0.0647929 0.0128727 0.00635)
(-0.0590495 0.0128727 0.00635)
(-0.0535156 0.0128727 0.00635)
(-0.0490611 0.0128727 0.00635)
(-0.0456683 0.0128727 0.00635)
(-0.0424415 0.0128727 0.00635)
(-0.0393727 0.0128727 0.00635)
(-0.0364539 0.0128727 0.00635)
(-0.033678 0.0128727 0.00635)
(-0.0310379 0.0128727 0.00635)
(-0.028527 0.0128727 0.00635)
(-0.0261389 0.0128727 0.00635)
(-0.0238677 0.0128727 0.00635)
(-0.0217076 0.0128727 0.00635)
(-0.0196531 0.0128727 0.00635)
(-0.0176993 0.0128727 0.00635)
(-0.015841 0.0128727 0.00635)
(-0.0140736 0.0128727 0.00635)
(-0.0123927 0.0128727 0.00635)
(-0.010794 0.0128727 0.00635)
(-0.0092736 0.0128727 0.00635)
(-0.00782755 0.0128727 0.00635)
(-0.00645226 0.0128727 0.00635)
(-0.00514426 0.0128727 0.00635)
(-0.00390026 0.0128727 0.00635)
(-0.00271712 0.0128727 0.00635)
(-0.00159187 0.0128727 0.00635)
(-0.000521677 0.0128727 0.00635)
(-1.36984 0.0129354 0.00635)
(-1.31652 0.0129354 0.00635)
(-1.26514 0.0129354 0.00635)
(-1.21564 0.0129354 0.00635)
(-1.16794 0.0129354 0.00635)
(-1.12198 0.0129354 0.00635)
(-1.07769 0.0129354 0.00635)
(-1.03502 0.0129354 0.00635)
(-0.993906 0.0129354 0.00635)
(-0.95429 0.0129354 0.00635)
(-0.916118 0.0129354 0.00635)
(-0.879338 0.0129354 0.00635)
(-0.843898 0.0129354 0.00635)
(-0.809751 0.0129354 0.00635)
(-0.776848 0.0129354 0.00635)
(-0.745145 0.0129354 0.00635)
(-0.714598 0.0129354 0.00635)
(-0.685165 0.0129354 0.00635)
(-0.656804 0.0129354 0.00635)
(-0.629478 0.0129354 0.00635)
(-0.603148 0.0129354 0.00635)
(-0.577777 0.0129354 0.00635)
(-0.553332 0.0129354 0.00635)
(-0.529778 0.0129354 0.00635)
(-0.507082 0.0129354 0.00635)
(-0.485214 0.0129354 0.00635)
(-0.464144 0.0129354 0.00635)
(-0.443841 0.0129354 0.00635)
(-0.424279 0.0129354 0.00635)
(-0.405429 0.0129354 0.00635)
(-0.387267 0.0129354 0.00635)
(-0.369768 0.0129354 0.00635)
(-0.352906 0.0129354 0.00635)
(-0.336659 0.0129354 0.00635)
(-0.321004 0.0129354 0.00635)
(-0.30592 0.0129354 0.00635)
(-0.291385 0.0129354 0.00635)
(-0.277381 0.0129354 0.00635)
(-0.263887 0.0129354 0.00635)
(-0.250886 0.0129354 0.00635)
(-0.238358 0.0129354 0.00635)
(-0.226287 0.0129354 0.00635)
(-0.214656 0.0129354 0.00635)
(-0.203449 0.0129354 0.00635)
(-0.192651 0.0129354 0.00635)
(-0.182246 0.0129354 0.00635)
(-0.172221 0.0129354 0.00635)
(-0.162561 0.0129354 0.00635)
(-0.153253 0.0129354 0.00635)
(-0.144285 0.0129354 0.00635)
(-0.135643 0.0129354 0.00635)
(-0.127317 0.0129354 0.00635)
(-0.119294 0.0129354 0.00635)
(-0.111564 0.0129354 0.00635)
(-0.104115 0.0129354 0.00635)
(-0.0969384 0.0129354 0.00635)
(-0.0900231 0.0129354 0.00635)
(-0.0833599 0.0129354 0.00635)
(-0.0769397 0.0129354 0.00635)
(-0.0707535 0.0129354 0.00635)
(-0.0647929 0.0129354 0.00635)
(-0.0590495 0.0129354 0.00635)
(-0.0535156 0.0129354 0.00635)
(-0.0490611 0.0129354 0.00635)
(-0.0456683 0.0129354 0.00635)
(-0.0424415 0.0129354 0.00635)
(-0.0393727 0.0129354 0.00635)
(-0.0364539 0.0129354 0.00635)
(-0.033678 0.0129354 0.00635)
(-0.0310379 0.0129354 0.00635)
(-0.028527 0.0129354 0.00635)
(-0.0261389 0.0129354 0.00635)
(-0.0238677 0.0129354 0.00635)
(-0.0217076 0.0129354 0.00635)
(-0.0196531 0.0129354 0.00635)
(-0.0176993 0.0129354 0.00635)
(-0.015841 0.0129354 0.00635)
(-0.0140736 0.0129354 0.00635)
(-0.0123927 0.0129354 0.00635)
(-0.010794 0.0129354 0.00635)
(-0.0092736 0.0129354 0.00635)
(-0.00782755 0.0129354 0.00635)
(-0.00645226 0.0129354 0.00635)
(-0.00514426 0.0129354 0.00635)
(-0.00390026 0.0129354 0.00635)
(-0.00271712 0.0129354 0.00635)
(-0.00159187 0.0129354 0.00635)
(-0.000521677 0.0129354 0.00635)
(-1.36984 0.0130113 0.00635)
(-1.31652 0.0130113 0.00635)
(-1.26514 0.0130113 0.00635)
(-1.21564 0.0130113 0.00635)
(-1.16794 0.0130113 0.00635)
(-1.12198 0.0130113 0.00635)
(-1.07769 0.0130113 0.00635)
(-1.03502 0.0130113 0.00635)
(-0.993906 0.0130113 0.00635)
(-0.95429 0.0130113 0.00635)
(-0.916118 0.0130113 0.00635)
(-0.879338 0.0130113 0.00635)
(-0.843898 0.0130113 0.00635)
(-0.809751 0.0130113 0.00635)
(-0.776848 0.0130113 0.00635)
(-0.745145 0.0130113 0.00635)
(-0.714598 0.0130113 0.00635)
(-0.685165 0.0130113 0.00635)
(-0.656804 0.0130113 0.00635)
(-0.629478 0.0130113 0.00635)
(-0.603148 0.0130113 0.00635)
(-0.577777 0.0130113 0.00635)
(-0.553332 0.0130113 0.00635)
(-0.529778 0.0130113 0.00635)
(-0.507082 0.0130113 0.00635)
(-0.485214 0.0130113 0.00635)
(-0.464144 0.0130113 0.00635)
(-0.443841 0.0130113 0.00635)
(-0.424279 0.0130113 0.00635)
(-0.405429 0.0130113 0.00635)
(-0.387267 0.0130113 0.00635)
(-0.369768 0.0130113 0.00635)
(-0.352906 0.0130113 0.00635)
(-0.336659 0.0130113 0.00635)
(-0.321004 0.0130113 0.00635)
(-0.30592 0.0130113 0.00635)
(-0.291385 0.0130113 0.00635)
(-0.277381 0.0130113 0.00635)
(-0.263887 0.0130113 0.00635)
(-0.250886 0.0130113 0.00635)
(-0.238358 0.0130113 0.00635)
(-0.226287 0.0130113 0.00635)
(-0.214656 0.0130113 0.00635)
(-0.203449 0.0130113 0.00635)
(-0.192651 0.0130113 0.00635)
(-0.182246 0.0130113 0.00635)
(-0.172221 0.0130113 0.00635)
(-0.162561 0.0130113 0.00635)
(-0.153253 0.0130113 0.00635)
(-0.144285 0.0130113 0.00635)
(-0.135643 0.0130113 0.00635)
(-0.127317 0.0130113 0.00635)
(-0.119294 0.0130113 0.00635)
(-0.111564 0.0130113 0.00635)
(-0.104115 0.0130113 0.00635)
(-0.0969384 0.0130113 0.00635)
(-0.0900231 0.0130113 0.00635)
(-0.0833599 0.0130113 0.00635)
(-0.0769397 0.0130113 0.00635)
(-0.0707535 0.0130113 0.00635)
(-0.0647929 0.0130113 0.00635)
(-0.0590495 0.0130113 0.00635)
(-0.0535156 0.0130113 0.00635)
(-0.0490611 0.0130113 0.00635)
(-0.0456683 0.0130113 0.00635)
(-0.0424415 0.0130113 0.00635)
(-0.0393727 0.0130113 0.00635)
(-0.0364539 0.0130113 0.00635)
(-0.033678 0.0130113 0.00635)
(-0.0310379 0.0130113 0.00635)
(-0.028527 0.0130113 0.00635)
(-0.0261389 0.0130113 0.00635)
(-0.0238677 0.0130113 0.00635)
(-0.0217076 0.0130113 0.00635)
(-0.0196531 0.0130113 0.00635)
(-0.0176993 0.0130113 0.00635)
(-0.015841 0.0130113 0.00635)
(-0.0140736 0.0130113 0.00635)
(-0.0123927 0.0130113 0.00635)
(-0.010794 0.0130113 0.00635)
(-0.0092736 0.0130113 0.00635)
(-0.00782755 0.0130113 0.00635)
(-0.00645226 0.0130113 0.00635)
(-0.00514426 0.0130113 0.00635)
(-0.00390026 0.0130113 0.00635)
(-0.00271712 0.0130113 0.00635)
(-0.00159187 0.0130113 0.00635)
(-0.000521677 0.0130113 0.00635)
(-1.36984 0.0131031 0.00635)
(-1.31652 0.0131031 0.00635)
(-1.26514 0.0131031 0.00635)
(-1.21564 0.0131031 0.00635)
(-1.16794 0.0131031 0.00635)
(-1.12198 0.0131031 0.00635)
(-1.07769 0.0131031 0.00635)
(-1.03502 0.0131031 0.00635)
(-0.993906 0.0131031 0.00635)
(-0.95429 0.0131031 0.00635)
(-0.916118 0.0131031 0.00635)
(-0.879338 0.0131031 0.00635)
(-0.843898 0.0131031 0.00635)
(-0.809751 0.0131031 0.00635)
(-0.776848 0.0131031 0.00635)
(-0.745145 0.0131031 0.00635)
(-0.714598 0.0131031 0.00635)
(-0.685165 0.0131031 0.00635)
(-0.656804 0.0131031 0.00635)
(-0.629478 0.0131031 0.00635)
(-0.603148 0.0131031 0.00635)
(-0.577777 0.0131031 0.00635)
(-0.553332 0.0131031 0.00635)
(-0.529778 0.0131031 0.00635)
(-0.507082 0.0131031 0.00635)
(-0.485214 0.0131031 0.00635)
(-0.464144 0.0131031 0.00635)
(-0.443841 0.0131031 0.00635)
(-0.424279 0.0131031 0.00635)
(-0.405429 0.0131031 0.00635)
(-0.387267 0.0131031 0.00635)
(-0.369768 0.0131031 0.00635)
(-0.352906 0.0131031 0.00635)
(-0.336659 0.0131031 0.00635)
(-0.321004 0.0131031 0.00635)
(-0.30592 0.0131031 0.00635)
(-0.291385 0.0131031 0.00635)
(-0.277381 0.0131031 0.00635)
(-0.263887 0.0131031 0.00635)
(-0.250886 0.0131031 0.00635)
(-0.238358 0.0131031 0.00635)
(-0.226287 0.0131031 0.00635)
(-0.214656 0.0131031 0.00635)
(-0.203449 0.0131031 0.00635)
(-0.192651 0.0131031 0.00635)
(-0.182246 0.0131031 0.00635)
(-0.172221 0.0131031 0.00635)
(-0.162561 0.0131031 0.00635)
(-0.153253 0.0131031 0.00635)
(-0.144285 0.0131031 0.00635)
(-0.135643 0.0131031 0.00635)
(-0.127317 0.0131031 0.00635)
(-0.119294 0.0131031 0.00635)
(-0.111564 0.0131031 0.00635)
(-0.104115 0.0131031 0.00635)
(-0.0969384 0.0131031 0.00635)
(-0.0900231 0.0131031 0.00635)
(-0.0833599 0.0131031 0.00635)
(-0.0769397 0.0131031 0.00635)
(-0.0707535 0.0131031 0.00635)
(-0.0647929 0.0131031 0.00635)
(-0.0590495 0.0131031 0.00635)
(-0.0535156 0.0131031 0.00635)
(-0.0490611 0.0131031 0.00635)
(-0.0456683 0.0131031 0.00635)
(-0.0424415 0.0131031 0.00635)
(-0.0393727 0.0131031 0.00635)
(-0.0364539 0.0131031 0.00635)
(-0.033678 0.0131031 0.00635)
(-0.0310379 0.0131031 0.00635)
(-0.028527 0.0131031 0.00635)
(-0.0261389 0.0131031 0.00635)
(-0.0238677 0.0131031 0.00635)
(-0.0217076 0.0131031 0.00635)
(-0.0196531 0.0131031 0.00635)
(-0.0176993 0.0131031 0.00635)
(-0.015841 0.0131031 0.00635)
(-0.0140736 0.0131031 0.00635)
(-0.0123927 0.0131031 0.00635)
(-0.010794 0.0131031 0.00635)
(-0.0092736 0.0131031 0.00635)
(-0.00782755 0.0131031 0.00635)
(-0.00645226 0.0131031 0.00635)
(-0.00514426 0.0131031 0.00635)
(-0.00390026 0.0131031 0.00635)
(-0.00271712 0.0131031 0.00635)
(-0.00159187 0.0131031 0.00635)
(-0.000521677 0.0131031 0.00635)
(-1.36984 0.0132141 0.00635)
(-1.31652 0.0132141 0.00635)
(-1.26514 0.0132141 0.00635)
(-1.21564 0.0132141 0.00635)
(-1.16794 0.0132141 0.00635)
(-1.12198 0.0132141 0.00635)
(-1.07769 0.0132141 0.00635)
(-1.03502 0.0132141 0.00635)
(-0.993906 0.0132141 0.00635)
(-0.95429 0.0132141 0.00635)
(-0.916118 0.0132141 0.00635)
(-0.879338 0.0132141 0.00635)
(-0.843898 0.0132141 0.00635)
(-0.809751 0.0132141 0.00635)
(-0.776848 0.0132141 0.00635)
(-0.745145 0.0132141 0.00635)
(-0.714598 0.0132141 0.00635)
(-0.685165 0.0132141 0.00635)
(-0.656804 0.0132141 0.00635)
(-0.629478 0.0132141 0.00635)
(-0.603148 0.0132141 0.00635)
(-0.577777 0.0132141 0.00635)
(-0.553332 0.0132141 0.00635)
(-0.529778 0.0132141 0.00635)
(-0.507082 0.0132141 0.00635)
(-0.485214 0.0132141 0.00635)
(-0.464144 0.0132141 0.00635)
(-0.443841 0.0132141 0.00635)
(-0.424279 0.0132141 0.00635)
(-0.405429 0.0132141 0.00635)
(-0.387267 0.0132141 0.00635)
(-0.369768 0.0132141 0.00635)
(-0.352906 0.0132141 0.00635)
(-0.336659 0.0132141 0.00635)
(-0.321004 0.0132141 0.00635)
(-0.30592 0.0132141 0.00635)
(-0.291385 0.0132141 0.00635)
(-0.277381 0.0132141 0.00635)
(-0.263887 0.0132141 0.00635)
(-0.250886 0.0132141 0.00635)
(-0.238358 0.0132141 0.00635)
(-0.226287 0.0132141 0.00635)
(-0.214656 0.0132141 0.00635)
(-0.203449 0.0132141 0.00635)
(-0.192651 0.0132141 0.00635)
(-0.182246 0.0132141 0.00635)
(-0.172221 0.0132141 0.00635)
(-0.162561 0.0132141 0.00635)
(-0.153253 0.0132141 0.00635)
(-0.144285 0.0132141 0.00635)
(-0.135643 0.0132141 0.00635)
(-0.127317 0.0132141 0.00635)
(-0.119294 0.0132141 0.00635)
(-0.111564 0.0132141 0.00635)
(-0.104115 0.0132141 0.00635)
(-0.0969384 0.0132141 0.00635)
(-0.0900231 0.0132141 0.00635)
(-0.0833599 0.0132141 0.00635)
(-0.0769397 0.0132141 0.00635)
(-0.0707535 0.0132141 0.00635)
(-0.0647929 0.0132141 0.00635)
(-0.0590495 0.0132141 0.00635)
(-0.0535156 0.0132141 0.00635)
(-0.0490611 0.0132141 0.00635)
(-0.0456683 0.0132141 0.00635)
(-0.0424415 0.0132141 0.00635)
(-0.0393727 0.0132141 0.00635)
(-0.0364539 0.0132141 0.00635)
(-0.033678 0.0132141 0.00635)
(-0.0310379 0.0132141 0.00635)
(-0.028527 0.0132141 0.00635)
(-0.0261389 0.0132141 0.00635)
(-0.0238677 0.0132141 0.00635)
(-0.0217076 0.0132141 0.00635)
(-0.0196531 0.0132141 0.00635)
(-0.0176993 0.0132141 0.00635)
(-0.015841 0.0132141 0.00635)
(-0.0140736 0.0132141 0.00635)
(-0.0123927 0.0132141 0.00635)
(-0.010794 0.0132141 0.00635)
(-0.0092736 0.0132141 0.00635)
(-0.00782755 0.0132141 0.00635)
(-0.00645226 0.0132141 0.00635)
(-0.00514426 0.0132141 0.00635)
(-0.00390026 0.0132141 0.00635)
(-0.00271712 0.0132141 0.00635)
(-0.00159187 0.0132141 0.00635)
(-0.000521677 0.0132141 0.00635)
(-1.36984 0.0133485 0.00635)
(-1.31652 0.0133485 0.00635)
(-1.26514 0.0133485 0.00635)
(-1.21564 0.0133485 0.00635)
(-1.16794 0.0133485 0.00635)
(-1.12198 0.0133485 0.00635)
(-1.07769 0.0133485 0.00635)
(-1.03502 0.0133485 0.00635)
(-0.993906 0.0133485 0.00635)
(-0.95429 0.0133485 0.00635)
(-0.916118 0.0133485 0.00635)
(-0.879338 0.0133485 0.00635)
(-0.843898 0.0133485 0.00635)
(-0.809751 0.0133485 0.00635)
(-0.776848 0.0133485 0.00635)
(-0.745145 0.0133485 0.00635)
(-0.714598 0.0133485 0.00635)
(-0.685165 0.0133485 0.00635)
(-0.656804 0.0133485 0.00635)
(-0.629478 0.0133485 0.00635)
(-0.603148 0.0133485 0.00635)
(-0.577777 0.0133485 0.00635)
(-0.553332 0.0133485 0.00635)
(-0.529778 0.0133485 0.00635)
(-0.507082 0.0133485 0.00635)
(-0.485214 0.0133485 0.00635)
(-0.464144 0.0133485 0.00635)
(-0.443841 0.0133485 0.00635)
(-0.424279 0.0133485 0.00635)
(-0.405429 0.0133485 0.00635)
(-0.387267 0.0133485 0.00635)
(-0.369768 0.0133485 0.00635)
(-0.352906 0.0133485 0.00635)
(-0.336659 0.0133485 0.00635)
(-0.321004 0.0133485 0.00635)
(-0.30592 0.0133485 0.00635)
(-0.291385 0.0133485 0.00635)
(-0.277381 0.0133485 0.00635)
(-0.263887 0.0133485 0.00635)
(-0.250886 0.0133485 0.00635)
(-0.238358 0.0133485 0.00635)
(-0.226287 0.0133485 0.00635)
(-0.214656 0.0133485 0.00635)
(-0.203449 0.0133485 0.00635)
(-0.192651 0.0133485 0.00635)
(-0.182246 0.0133485 0.00635)
(-0.172221 0.0133485 0.00635)
(-0.162561 0.0133485 0.00635)
(-0.153253 0.0133485 0.00635)
(-0.144285 0.0133485 0.00635)
(-0.135643 0.0133485 0.00635)