/*--------------------------------*- C++ -*----------------------------------*\
| =========                 |                                                 |
| \\      /  F ield         | OpenFOAM: The Open Source CFD Toolbox           |
|  \\    /   O peration     | Version:  5.x                                   |
|   \\  /    A nd           | Web:      www.OpenFOAM.org                      |
|    \\/     M anipulation  |                                                 |
\*---------------------------------------------------------------------------*/
FoamFile
{
    version     2.0;
    format      ascii;
    class       volScalarField;
    location    "100";
    object      nut;
}
// * * * * * * * * * * * * * * * * * * * * * * * * * * * * * * * * * * * * * //

dimensions      [0 2 -1 0 0 0 0];

internalField   nonuniform List<scalar> 
20540
(
1.03082e-05
1.94255e-05
1.05131e-05
2.07796e-05
1.10807e-05
2.55624e-05
1.1907e-05
3.46839e-05
1.28951e-05
4.87952e-05
1.40832e-05
6.76094e-05
1.5903e-05
8.98139e-05
1.96412e-05
0.000113587
2.58151e-05
0.000137028
3.37161e-05
0.000158198
4.16363e-05
0.000174913
4.7308e-05
0.000184479
4.84092e-05
0.000183497
4.30072e-05
0.000167779
3.0632e-05
0.00013237
1.52649e-05
7.77665e-05
5.78702e-06
3.05681e-05
3.69802e-06
8.5987e-06
3.25824e-06
3.7967e-06
3.21727e-06
3.27719e-06
3.19895e-06
3.23125e-06
3.19991e-06
3.21823e-06
3.2014e-06
3.21184e-06
3.20239e-06
3.20891e-06
3.20302e-06
3.20703e-06
3.20343e-06
3.20575e-06
3.20369e-06
3.20487e-06
3.20383e-06
3.20428e-06
3.20391e-06
3.20388e-06
3.20391e-06
3.2036e-06
3.20384e-06
3.20335e-06
3.20367e-06
3.20302e-06
3.20366e-06
3.20302e-06
3.20383e-06
3.20332e-06
3.20391e-06
3.20359e-06
3.20391e-06
3.20386e-06
3.20384e-06
3.20424e-06
3.20371e-06
3.20479e-06
3.20348e-06
3.20559e-06
3.20311e-06
3.20676e-06
3.20255e-06
3.20845e-06
3.20169e-06
3.21096e-06
3.20034e-06
3.21577e-06
3.19914e-06
3.22684e-06
3.20528e-06
3.24676e-06
3.22994e-06
3.44615e-06
3.40353e-06
5.32304e-06
4.28415e-06
1.65614e-05
9.00005e-06
5.00219e-05
2.13101e-05
9.98149e-05
3.54061e-05
0.000143517
4.44387e-05
0.000168731
4.68648e-05
0.000177247
4.38084e-05
0.000173563
3.72451e-05
0.00016126
2.93787e-05
0.000143218
2.22298e-05
0.00012176
1.71272e-05
9.88657e-05
1.44294e-05
7.63992e-05
1.30285e-05
5.619e-05
1.19953e-05
3.98342e-05
1.10654e-05
2.81707e-05
1.02678e-05
2.09763e-05
9.71827e-06
1.73375e-05
9.52117e-06
1.63331e-05
2.89325e-08
1.64867e-08
1.32994e-08
1.19143e-08
1.11959e-08
1.07713e-08
1.04991e-08
1.03202e-08
1.02019e-08
1.01237e-08
1.00732e-08
1.00428e-08
1.00272e-08
1.00229e-08
1.00271e-08
1.00378e-08
1.00537e-08
1.00736e-08
1.00967e-08
1.01225e-08
1.01505e-08
1.01804e-08
1.02118e-08
1.02445e-08
1.02784e-08
1.03132e-08
1.03488e-08
1.03851e-08
1.0422e-08
1.04594e-08
1.04973e-08
1.05357e-08
1.05747e-08
1.06142e-08
1.06542e-08
1.06949e-08
1.07362e-08
1.07781e-08
1.08206e-08
1.08637e-08
1.09075e-08
1.09519e-08
1.0997e-08
1.10429e-08
1.10897e-08
1.11377e-08
1.11869e-08
1.12378e-08
1.12907e-08
1.13459e-08
1.1404e-08
1.14653e-08
1.15306e-08
1.16006e-08
1.16757e-08
1.17577e-08
1.18463e-08
1.19452e-08
1.2053e-08
1.21763e-08
1.23146e-08
1.24764e-08
1.26633e-08
1.2805e-08
1.29087e-08
1.30265e-08
1.31523e-08
1.32778e-08
1.34035e-08
1.35278e-08
1.36538e-08
1.37785e-08
1.39061e-08
1.40423e-08
1.41577e-08
1.43332e-08
1.43797e-08
1.46353e-08
1.45266e-08
1.4826e-08
1.45871e-08
1.45884e-08
1.45923e-08
1.34379e-08
1.47306e-08
1.11392e-08
1.6089e-08
1.44518e-08
2.2655e-06
1.43953e-06
1.16456e-06
1.04364e-06
9.79952e-07
9.41952e-07
9.17404e-07
9.01109e-07
8.90206e-07
8.82893e-07
8.78083e-07
8.7508e-07
8.73426e-07
8.72791e-07
8.72941e-07
8.73694e-07
8.74919e-07
8.76517e-07
8.78411e-07
8.8055e-07
8.82893e-07
8.85407e-07
8.88063e-07
8.90837e-07
8.93712e-07
8.96675e-07
8.9971e-07
9.02806e-07
9.05953e-07
9.09147e-07
9.12384e-07
9.15664e-07
9.18986e-07
9.22355e-07
9.25771e-07
9.29235e-07
9.3275e-07
9.36316e-07
9.39933e-07
9.43601e-07
9.47319e-07
9.51089e-07
9.54914e-07
9.58804e-07
9.62768e-07
9.66818e-07
9.70972e-07
9.75252e-07
9.79683e-07
9.84298e-07
9.89131e-07
9.94223e-07
9.99615e-07
1.00537e-06
1.01152e-06
1.0182e-06
1.02537e-06
1.03334e-06
1.04196e-06
1.05175e-06
1.06258e-06
1.07514e-06
1.09014e-06
1.10212e-06
1.11071e-06
1.11963e-06
1.12909e-06
1.13863e-06
1.14817e-06
1.15757e-06
1.167e-06
1.1764e-06
1.18575e-06
1.19619e-06
1.20437e-06
1.21853e-06
1.2214e-06
1.24308e-06
1.23491e-06
1.26179e-06
1.24607e-06
1.25332e-06
1.25605e-06
1.18574e-06
1.25794e-06
1.03896e-06
1.16621e-06
1.20015e-06
1.91482e-05
1.52093e-05
1.22372e-05
1.08665e-05
1.01363e-05
9.69877e-06
9.41465e-06
9.22398e-06
9.09431e-06
9.00544e-06
8.94505e-06
8.90528e-06
8.88092e-06
8.86827e-06
8.86468e-06
8.8681e-06
8.87705e-06
8.89034e-06
8.90711e-06
8.92668e-06
8.9486e-06
8.97245e-06
8.9979e-06
9.02466e-06
9.05255e-06
9.08137e-06
9.11098e-06
9.14124e-06
9.17204e-06
9.20329e-06
9.23497e-06
9.26703e-06
9.29946e-06
9.33229e-06
9.36551e-06
9.39914e-06
9.4332e-06
9.46767e-06
9.50258e-06
9.53792e-06
9.57367e-06
9.60983e-06
9.64644e-06
9.68355e-06
9.72123e-06
9.75959e-06
9.79875e-06
9.83888e-06
9.88022e-06
9.92303e-06
9.9676e-06
1.00143e-05
1.00634e-05
1.01155e-05
1.01708e-05
1.02305e-05
1.0294e-05
1.03641e-05
1.04389e-05
1.05233e-05
1.06147e-05
1.07189e-05
1.08508e-05
1.0954e-05
1.10235e-05
1.1085e-05
1.11466e-05
1.12072e-05
1.12653e-05
1.13197e-05
1.13703e-05
1.14189e-05
1.1461e-05
1.15147e-05
1.154e-05
1.16262e-05
1.16062e-05
1.17637e-05
1.16628e-05
1.18875e-05
1.17416e-05
1.18815e-05
1.18539e-05
1.16141e-05
1.18389e-05
1.10482e-05
1.02588e-05
1.14854e-05
5.11301e-05
5.29841e-05
4.77218e-05
4.41305e-05
4.18853e-05
4.0427e-05
3.94283e-05
3.87228e-05
3.82164e-05
3.78481e-05
3.75788e-05
3.73824e-05
3.72414e-05
3.71431e-05
3.70781e-05
3.70391e-05
3.70205e-05
3.70179e-05
3.70277e-05
3.70473e-05
3.70745e-05
3.71078e-05
3.71461e-05
3.71882e-05
3.72333e-05
3.72808e-05
3.73301e-05
3.73808e-05
3.74323e-05
3.74843e-05
3.75365e-05
3.75888e-05
3.76408e-05
3.76926e-05
3.77441e-05
3.77954e-05
3.78465e-05
3.78974e-05
3.79481e-05
3.79987e-05
3.80491e-05
3.80993e-05
3.81491e-05
3.81985e-05
3.82477e-05
3.82967e-05
3.83455e-05
3.83944e-05
3.84437e-05
3.84938e-05
3.85452e-05
3.85986e-05
3.86544e-05
3.87138e-05
3.87763e-05
3.88445e-05
3.89163e-05
3.89968e-05
3.90811e-05
3.91788e-05
3.92804e-05
3.93917e-05
3.95843e-05
3.96484e-05
3.96475e-05
3.96002e-05
3.95283e-05
3.9439e-05
3.9333e-05
3.92086e-05
3.90633e-05
3.89062e-05
3.87203e-05
3.8558e-05
3.83273e-05
3.8221e-05
3.7921e-05
3.79416e-05
3.75549e-05
3.76918e-05
3.73237e-05
3.73708e-05
3.72402e-05
3.70281e-05
3.70515e-05
3.7169e-05
3.46264e-05
3.94212e-05
8.64069e-05
9.97508e-05
9.52317e-05
9.03272e-05
8.68417e-05
8.44432e-05
8.27379e-05
8.14901e-05
8.05611e-05
7.98593e-05
7.93234e-05
7.89118e-05
7.85955e-05
7.83536e-05
7.81704e-05
7.80334e-05
7.79327e-05
7.78605e-05
7.78102e-05
7.77766e-05
7.7756e-05
7.77455e-05
7.77428e-05
7.77462e-05
7.7754e-05
7.7765e-05
7.77784e-05
7.77932e-05
7.78087e-05
7.7824e-05
7.78385e-05
7.78518e-05
7.78633e-05
7.78728e-05
7.78802e-05
7.78856e-05
7.7889e-05
7.78906e-05
7.78902e-05
7.78881e-05
7.78843e-05
7.78784e-05
7.78703e-05
7.78598e-05
7.78467e-05
7.7831e-05
7.78124e-05
7.7791e-05
7.77668e-05
7.77405e-05
7.77122e-05
7.76827e-05
7.76522e-05
7.76219e-05
7.75909e-05
7.75617e-05
7.7531e-05
7.75041e-05
7.74742e-05
7.74521e-05
7.74237e-05
7.73827e-05
7.74754e-05
7.72898e-05
7.70362e-05
7.66968e-05
7.62969e-05
7.58518e-05
7.53678e-05
7.4845e-05
7.42767e-05
7.36805e-05
7.30248e-05
7.23918e-05
7.16559e-05
7.10623e-05
7.02584e-05
6.97699e-05
6.89567e-05
6.85239e-05
6.78999e-05
6.73281e-05
6.70552e-05
6.65173e-05
6.61672e-05
6.72288e-05
6.37275e-05
7.07201e-05
0.000119416
0.000146621
0.000145197
0.000139907
0.000135557
0.000132394
0.00013007
0.000128319
0.000126977
0.000125933
0.00012511
0.000124455
0.000123931
0.000123509
0.00012317
0.000122895
0.000122672
0.000122489
0.000122338
0.00012221
0.000122099
0.000122002
0.000121916
0.000121837
0.000121764
0.000121694
0.000121627
0.000121561
0.000121495
0.000121427
0.000121358
0.000121285
0.000121208
0.000121127
0.000121041
0.00012095
0.000120856
0.000120756
0.000120653
0.000120545
0.000120433
0.000120316
0.000120195
0.000120068
0.000119936
0.000119798
0.000119653
0.000119501
0.000119342
0.000119176
0.000119004
0.000118825
0.000118639
0.000118448
0.000118251
0.000118048
0.000117836
0.000117619
0.000117389
0.000117155
0.000116904
0.000116606
0.000116492
0.000115916
0.000115284
0.000114532
0.000113684
0.000112758
0.000111763
0.000110706
0.000109573
0.000108391
0.000107115
0.000105843
0.000104441
0.000103152
0.000101686
0.000100418
9.90376e-05
9.77046e-05
9.66762e-05
9.51555e-05
9.44985e-05
9.33174e-05
9.23139e-05
9.35873e-05
8.98466e-05
9.64535e-05
0.00014799
0.000190385
0.000193996
0.000189114
0.00018419
0.000180378
0.000177482
0.000175239
0.000173473
0.000172064
0.000170925
0.000169994
0.000169225
0.000168586
0.000168052
0.000167602
0.000167218
0.000166888
0.000166598
0.00016634
0.000166104
0.000165885
0.000165679
0.000165483
0.000165293
0.000165108
0.000164924
0.000164741
0.000164556
0.000164369
0.000164178
0.000163982
0.000163779
0.000163568
0.00016335
0.000163123
0.00016289
0.000162648
0.000162399
0.000162143
0.00016188
0.000161609
0.00016133
0.000161042
0.000160744
0.000160437
0.000160118
0.000159787
0.000159444
0.000159088
0.00015872
0.000158338
0.000157944
0.000157536
0.000157114
0.000156679
0.000156225
0.000155754
0.000155259
0.000154747
0.000154205
0.000153577
0.000153184
0.000152114
0.000151005
0.000149747
0.000148357
0.000146854
0.000145249
0.000143553
0.000141749
0.000139868
0.000137855
0.000135811
0.000133618
0.000131464
0.000129197
0.000126945
0.000124821
0.000122392
0.000120689
0.000118098
0.000116671
0.000114681
0.000112756
0.000113342
0.000109823
0.000114629
0.000171103
0.000229944
0.000240818
0.000237294
0.000232109
0.000227741
0.000224285
0.000221529
0.000219301
0.000217479
0.000215971
0.000214708
0.000213641
0.000212731
0.00021195
0.000211273
0.000210681
0.000210156
0.000209683
0.000209249
0.000208845
0.000208463
0.000208097
0.000207742
0.000207396
0.000207053
0.000206712
0.000206372
0.000206028
0.000205681
0.000205326
0.000204964
0.000204592
0.000204209
0.000203815
0.000203408
0.000202991
0.000202561
0.00020212
0.000201668
0.000201204
0.000200729
0.000200242
0.000199741
0.000199226
0.000198696
0.00019815
0.000197585
0.000197002
0.000196399
0.000195776
0.000195133
0.000194468
0.000193782
0.000193072
0.000192337
0.000191574
0.000190781
0.00018995
0.000189085
0.000188179
0.000187141
0.000186397
0.000184724
0.000183033
0.000181158
0.000179118
0.00017693
0.000174602
0.00017215
0.000169554
0.000166845
0.00016397
0.000161008
0.000157887
0.000154694
0.000151462
0.000148039
0.000144937
0.000141268
0.000138534
0.000134805
0.000132215
0.000129212
0.000126269
0.000125291
0.000121901
0.000125417
0.000187847
0.000264166
0.000285133
0.000284361
0.000279429
0.000274679
0.000270708
0.000267424
0.000264691
0.000262397
0.000260453
0.000258789
0.000257351
0.000256098
0.000254999
0.000254028
0.00025316
0.000252377
0.000251659
0.000250992
0.000250362
0.00024976
0.000249178
0.000248611
0.000248054
0.000247501
0.00024695
0.000246398
0.000245842
0.000245279
0.000244708
0.000244125
0.000243528
0.000242916
0.000242288
0.000241644
0.000240982
0.000240304
0.00023961
0.000238898
0.000238171
0.000237427
0.000236665
0.000235885
0.000235084
0.000234263
0.000233418
0.000232548
0.000231652
0.000230728
0.000229775
0.000228792
0.000227778
0.000226731
0.00022565
0.000224532
0.000223372
0.000222168
0.000220911
0.0002196
0.000218235
0.000216687
0.000215504
0.000213091
0.000210687
0.000208054
0.000205225
0.000202211
0.000199016
0.000195659
0.00019212
0.000188423
0.000184529
0.000180473
0.000176254
0.000171826
0.00016742
0.000162626
0.000158251
0.000153172
0.000149026
0.000143976
0.000139927
0.000135547
0.000131556
0.000128536
0.000124099
0.00012842
0.000197135
0.000291249
0.000325737
0.00032977
0.000325973
0.000321204
0.000316861
0.000313091
0.000309838
0.000307024
0.000304578
0.000302436
0.000300545
0.000298863
0.000297359
0.000296006
0.000294777
0.000293652
0.000292608
0.000291628
0.000290696
0.0002898
0.000288929
0.000288078
0.000287237
0.000286403
0.00028557
0.000284736
0.000283896
0.000283046
0.000282184
0.000281307
0.000280412
0.000279497
0.000278559
0.000277599
0.000276616
0.00027561
0.000274581
0.000273529
0.000272453
0.000271355
0.000270232
0.000269083
0.000267907
0.000266703
0.000265467
0.000264198
0.000262893
0.00026155
0.000260168
0.000258744
0.000257277
0.000255765
0.000254205
0.000252592
0.000250924
0.000249193
0.000247391
0.000245513
0.000243568
0.000241382
0.000239644
0.000236319
0.000233037
0.000229472
0.000225672
0.000221649
0.000217403
0.000212949
0.000208272
0.000203384
0.000198267
0.0001929
0.00018736
0.000181471
0.000175613
0.000169214
0.000163217
0.00015645
0.000150526
0.000143761
0.000137993
0.000131817
0.000126396
0.000121671
0.000114023
0.000121067
0.00019768
0.000308615
0.000360438
0.000372136
0.000370902
0.000366786
0.000362394
0.000358287
0.000354566
0.000351227
0.000348234
0.000345545
0.000343117
0.000340913
0.000338903
0.000337064
0.000335371
0.000333799
0.000332327
0.000330934
0.0003296
0.000328312
0.000327057
0.000325825
0.000324608
0.000323399
0.000322191
0.000320981
0.000319762
0.000318532
0.000317285
0.000316018
0.000314729
0.000313412
0.000312067
0.000310691
0.000309285
0.000307847
0.000306378
0.000304878
0.000303346
0.000301782
0.000300185
0.000298554
0.000296886
0.00029518
0.000293433
0.000291642
0.000289804
0.000287916
0.000285976
0.000283981
0.000281928
0.000279813
0.000277635
0.000275387
0.000273064
0.000270659
0.000268161
0.00026556
0.000262875
0.000259885
0.000257444
0.000252988
0.000248623
0.000243902
0.000238899
0.000233628
0.000228087
0.000222283
0.00021621
0.000209861
0.000203242
0.000196285
0.000189106
0.000181471
0.000173779
0.00016546
0.000157405
0.000148527
0.000140387
0.000131373
0.000123357
0.000115193
0.000107283
0.000101684
8.92299e-05
9.81695e-05
0.000188084
0.000313041
0.000385892
0.000408993
0.000412486
0.000410155
0.00040632
0.000402209
0.000398192
0.000394399
0.000390865
0.000387591
0.000384558
0.000381742
0.000379123
0.000376683
0.000374403
0.000372261
0.000370234
0.000368302
0.000366443
0.000364639
0.000362876
0.000361143
0.000359429
0.000357724
0.000356021
0.000354314
0.000352596
0.000350863
0.000349109
0.00034733
0.00034552
0.000343677
0.000341797
0.000339877
0.000337917
0.000335915
0.000333871
0.000331785
0.000329657
0.000327485
0.00032527
0.000323008
0.000320699
0.000318339
0.000315926
0.000313456
0.000310925
0.000308329
0.000305666
0.00030293
0.000300118
0.000297226
0.00029425
0.000291182
0.000288018
0.000284745
0.000281355
0.000277828
0.000274198
0.000270186
0.000266844
0.000260973
0.000255258
0.000249089
0.000242574
0.000235732
0.000228558
0.000221054
0.000213214
0.000205022
0.000196478
0.000187527
0.000178213
0.000168412
0.000158295
0.000147597
0.000136814
0.000125308
0.000114242
0.000102531
9.15833e-05
8.13521e-05
7.06248e-05
6.40466e-05
4.98151e-05
5.52584e-05
0.000167025
0.000301065
0.000397523
0.000436518
0.000447831
0.000449067
0.000446818
0.000443313
0.000439368
0.000435328
0.000431355
0.000427522
0.000423857
0.000420366
0.000417042
0.000413886
0.000410888
0.000408034
0.000405306
0.000402684
0.000400146
0.000397674
0.000395251
0.000392863
0.000390498
0.000388145
0.000385793
0.000383435
0.000381064
0.000378673
0.000376255
0.000373805
0.000371317
0.000368785
0.000366207
0.000363578
0.000360897
0.000358161
0.00035537
0.000352523
0.000349619
0.000346657
0.000343637
0.000340557
0.000337413
0.000334203
0.000330924
0.000327571
0.000324141
0.000320626
0.000317024
0.000313329
0.000309535
0.000305636
0.000301627
0.000297499
0.000293244
0.000288851
0.000284307
0.000279585
0.00027473
0.0002694
0.000264882
0.000257209
0.00024977
0.000241743
0.000233273
0.000224385
0.000215071
0.000205326
0.000195129
0.000184473
0.000173306
0.000161651
0.000149386
0.000136646
0.000123257
0.00010947
9.53797e-05
8.10818e-05
6.74981e-05
5.44221e-05
4.30368e-05
3.36823e-05
2.54549e-05
2.06729e-05
1.4164e-05
1.45272e-05
0.000135262
0.000270162
0.000389624
0.000449231
0.000472513
0.00047997
0.000480938
0.000479069
0.000475856
0.000471993
0.000467839
0.00046359
0.00045935
0.000455175
0.000451092
0.000447122
0.00044328
0.000439567
0.000435976
0.000432491
0.000429096
0.000425771
0.000422501
0.00041927
0.000416063
0.000412869
0.000409676
0.000406474
0.000403253
0.000400006
0.000396725
0.000393402
0.000390032
0.000386606
0.000383121
0.000379572
0.000375955
0.000372268
0.000368509
0.000364675
0.000360767
0.000356781
0.000352718
0.000348573
0.000344346
0.000340031
0.000335626
0.000331125
0.000326522
0.000321812
0.000316987
0.00031204
0.000306964
0.00030175
0.000296391
0.000290874
0.000285191
0.000279323
0.000273259
0.00026696
0.000260479
0.000253399
0.000247291
0.000237227
0.000227473
0.000216921
0.000205757
0.000194012
0.000181671
0.000168721
0.000155121
0.000140895
0.000125987
0.000110591
9.46985e-05
7.88956e-05
6.34089e-05
4.91437e-05
3.66397e-05
2.63358e-05
1.85801e-05
1.29134e-05
9.10575e-06
6.63044e-06
4.93021e-06
3.99974e-06
3.11933e-06
2.96672e-06
0.000126076
0.000222382
0.000355945
0.000439804
0.000480137
0.000497545
0.000504188
0.000505578
0.000504196
0.000501261
0.000497434
0.000493098
0.000488483
0.000483725
0.000478907
0.000474084
0.000469305
0.0004646
0.000459982
0.000455451
0.000450998
0.000446609
0.000442271
0.000437969
0.000433689
0.000429418
0.000425143
0.000420853
0.000416536
0.000412184
0.000407787
0.000403336
0.000398824
0.000394241
0.000389582
0.000384841
0.000380013
0.000375093
0.000370079
0.000364967
0.000359756
0.000354442
0.000349022
0.000343493
0.000337852
0.000332094
0.000326213
0.000320204
0.00031406
0.000307771
0.00030133
0.000294725
0.000287944
0.000280974
0.000273802
0.000266409
0.00025878
0.00025089
0.000242721
0.000234215
0.000225435
0.000215855
0.00020741
0.000193854
0.000180644
0.000166263
0.000150984
0.000134914
0.000118169
0.000100988
8.37376e-05
6.70307e-05
5.15314e-05
3.80473e-05
2.70042e-05
1.86533e-05
1.26795e-05
8.66171e-06
6.05232e-06
4.38561e-06
3.34541e-06
2.68267e-06
2.26493e-06
2.00259e-06
1.83321e-06
1.73301e-06
1.67044e-06
1.61827e-06
0.000103323
0.00015967
0.000292176
0.000399537
0.000461949
0.00049415
0.000509983
0.000517073
0.000519235
0.000518452
0.000515831
0.000512033
0.000507472
0.000502414
0.000497026
0.000491419
0.000485689
0.000479911
0.000474134
0.000468383
0.000462667
0.000456986
0.000451332
0.000445697
0.000440068
0.000434435
0.000428785
0.000423106
0.000417386
0.000411616
0.000405783
0.000399877
0.00039389
0.000387811
0.000381631
0.000375344
0.000368941
0.000362418
0.000355768
0.000348988
0.000342072
0.000335016
0.000327813
0.000320458
0.000312943
0.000305261
0.000297401
0.000289354
0.000281109
0.000272653
0.000263971
0.000255045
0.000245854
0.000236373
0.000226571
0.000216414
0.000205861
0.000194863
0.000183376
0.000171325
0.000158761
0.000145112
0.000132731
0.000113943
9.62864e-05
7.83088e-05
6.11748e-05
4.58204e-05
3.29559e-05
2.29251e-05
1.56148e-05
1.0595e-05
7.28747e-06
5.1733e-06
3.83338e-06
2.99096e-06
2.45709e-06
2.11953e-06
1.9075e-06
1.77693e-06
1.70229e-06
1.66971e-06
1.66455e-06
1.67418e-06
1.69472e-06
1.70904e-06
1.74614e-06
1.74024e-06
6.04895e-05
9.41885e-05
0.000199355
0.000320171
0.000406943
0.000459285
0.000488974
0.000505246
0.000513504
0.000516762
0.000516756
0.000514548
0.000510819
0.000506023
0.000500462
0.000494333
0.000487789
0.000480969
0.000473977
0.000466882
0.000459725
0.000452528
0.000445299
0.000438042
0.000430751
0.000423421
0.000416041
0.000408603
0.000401095
0.000393506
0.000385826
0.000378042
0.000370143
0.000362116
0.000353949
0.000345631
0.00033715
0.000328497
0.000319661
0.000310634
0.000301406
0.000291968
0.000282307
0.000272409
0.000262255
0.000251823
0.000241085
0.00023001
0.000218561
0.0002067
0.000194389
0.000181595
0.000168293
0.000154482
0.000140184
0.000125473
0.000110478
9.54136e-05
8.05724e-05
6.63357e-05
5.31559e-05
4.11989e-05
3.18766e-05
2.18622e-05
1.51607e-05
1.03873e-05
7.21412e-06
5.17048e-06
3.87005e-06
3.04405e-06
2.51759e-06
2.18158e-06
1.96802e-06
1.83581e-06
1.75937e-06
1.72583e-06
1.7206e-06
1.73276e-06
1.75615e-06
1.78674e-06
1.82168e-06
1.85918e-06
1.89789e-06
1.93511e-06
1.97343e-06
2.00376e-06
2.04404e-06
2.05661e-06
1.89432e-05
3.75505e-05
8.93797e-05
0.000198369
0.000303604
0.000379509
0.000428353
0.000458449
0.000476429
0.0004865
0.00049124
0.00049227
0.000490647
0.00048709
0.000482097
0.000476002
0.000469033
0.000461403
0.000453294
0.000444842
0.00043614
0.000427246
0.000418198
0.000409019
0.000399717
0.000390297
0.000380756
0.000371087
0.000361282
0.000351332
0.000341223
0.000330945
0.000320481
0.000309815
0.000298926
0.000287792
0.000276385
0.000264674
0.000252624
0.000240196
0.000227353
0.000214055
0.00020027
0.000185975
0.000171165
0.000155864
0.000140136
0.000124107
0.000107974
9.2027e-05
7.66389e-05
6.22407e-05
4.92578e-05
3.80306e-05
2.87381e-05
2.13727e-05
1.57571e-05
1.1615e-05
8.63311e-06
6.52393e-06
5.04509e-06
4.00566e-06
3.31532e-06
2.72059e-06
2.35761e-06
2.11062e-06
1.95056e-06
1.85184e-06
1.79817e-06
1.77829e-06
1.77966e-06
1.79462e-06
1.81874e-06
1.8489e-06
1.88337e-06
1.92046e-06
1.95948e-06
1.99931e-06
2.03963e-06
2.0798e-06
2.11951e-06
2.15817e-06
2.19592e-06
2.23111e-06
2.2659e-06
2.29606e-06
2.3283e-06
2.34524e-06
5.69192e-06
9.17619e-06
1.83886e-05
5.79119e-05
0.000146674
0.00023921
0.000310921
0.000360578
0.000393206
0.000413976
0.000426545
0.000433276
0.00043573
0.000434983
0.0004318
0.000426717
0.000420084
0.000412185
0.0004033
0.000393655
0.00038342
0.00037271
0.000361608
0.000350166
0.000338415
0.000326372
0.000314037
0.0003014
0.000288442
0.000275132
0.000261434
0.00024731
0.000232719
0.000217623
0.000201996
0.00018583
0.000169146
0.000152005
0.000134533
0.000116938
9.95269e-05
8.27107e-05
6.69714e-05
5.27937e-05
4.05673e-05
3.04975e-05
2.25676e-05
1.65689e-05
1.21783e-05
9.04206e-06
6.83676e-06
5.29854e-06
4.22784e-06
3.48092e-06
2.95741e-06
2.58909e-06
2.3293e-06
2.14641e-06
2.01874e-06
1.9311e-06
1.87366e-06
1.84228e-06
1.83067e-06
1.83453e-06
1.84768e-06
1.86865e-06
1.89526e-06
1.92583e-06
1.95914e-06
1.99426e-06
2.03056e-06
2.06747e-06
2.10477e-06
2.14205e-06
2.17931e-06
2.21616e-06
2.25273e-06
2.28861e-06
2.32392e-06
2.35831e-06
2.39188e-06
2.42411e-06
2.45536e-06
2.48454e-06
2.51298e-06
2.53868e-06
2.56479e-06
2.58134e-06
3.33983e-06
3.65908e-06
4.3534e-06
6.5931e-06
1.75624e-05
5.56285e-05
0.000121241
0.000186605
0.000238667
0.000276542
0.000302517
0.000319301
0.000329168
0.000333813
0.000334453
0.000331954
0.00032689
0.000319615
0.00031051
0.000299906
0.000288057
0.000275138
0.000261273
0.000246542
0.000231001
0.000214692
0.000197657
0.000179951
0.000161663
0.000142941
0.000124014
0.000105227
8.70413e-05
7.00147e-05
5.47153e-05
4.1601e-05
3.09054e-05
2.25927e-05
1.64008e-05
1.19428e-05
8.80952e-06
6.63891e-06
5.1444e-06
4.11536e-06
3.40407e-06
2.90981e-06
2.56478e-06
2.32317e-06
2.15405e-06
2.03686e-06
1.95734e-06
1.905e-06
1.87457e-06
1.86362e-06
1.86572e-06
1.87621e-06
1.89253e-06
1.9131e-06
1.93684e-06
1.96301e-06
1.99087e-06
2.0209e-06
2.04903e-06
2.08463e-06
2.11695e-06
2.1503e-06
2.18391e-06
2.21746e-06
2.25082e-06
2.28386e-06
2.31656e-06
2.3488e-06
2.38061e-06
2.41184e-06
2.44258e-06
2.47264e-06
2.50214e-06
2.53085e-06
2.55889e-06
2.58602e-06
2.61238e-06
2.63763e-06
2.66201e-06
2.68497e-06
2.70719e-06
2.72775e-06
2.74828e-06
2.76291e-06
3.12484e-06
3.02386e-06
2.96222e-06
2.94173e-06
3.16973e-06
4.33429e-06
8.13696e-06
1.82521e-05
3.82942e-05
6.6156e-05
9.50343e-05
0.000119758
0.000138424
0.000150974
0.000158033
0.000160381
0.000158719
0.000153577
0.000145484
0.00013498
0.000122581
0.000108806
9.42086e-05
7.93933e-05
6.50088e-05
5.16902e-05
3.99668e-05
3.01686e-05
2.23772e-05
1.64505e-05
1.21022e-05
8.99545e-06
6.81306e-06
5.29329e-06
4.23746e-06
3.50259e-06
2.98927e-06
2.62962e-06
2.37753e-06
2.20156e-06
2.07973e-06
1.99683e-06
1.94322e-06
1.91269e-06
1.90143e-06
1.90304e-06
1.91304e-06
1.92886e-06
1.9488e-06
1.97169e-06
1.99667e-06
2.02313e-06
2.05059e-06
2.07871e-06
2.1072e-06
2.13585e-06
2.16453e-06
2.19314e-06
2.22162e-06
2.24997e-06
2.27803e-06
2.30657e-06
2.33233e-06
2.3637e-06
2.39145e-06
2.41953e-06
2.44736e-06
2.47476e-06
2.50171e-06
2.52815e-06
2.55409e-06
2.57947e-06
2.60432e-06
2.62859e-06
2.65231e-06
2.67541e-06
2.69792e-06
2.71977e-06
2.74101e-06
2.76153e-06
2.78138e-06
2.80044e-06
2.81881e-06
2.83633e-06
2.85299e-06
2.86879e-06
2.88487e-06
2.89821e-06
3.15559e-06
3.07295e-06
2.98794e-06
2.90344e-06
2.81727e-06
2.74787e-06
2.74912e-06
2.89796e-06
3.33179e-06
4.11255e-06
5.29237e-06
6.83965e-06
8.59451e-06
1.02946e-05
1.16611e-05
1.24896e-05
1.26969e-05
1.23252e-05
1.14952e-05
1.03688e-05
9.11271e-06
7.86533e-06
6.72135e-06
5.73066e-06
4.90743e-06
4.24337e-06
3.71899e-06
3.31084e-06
2.99576e-06
2.75338e-06
2.56699e-06
2.42345e-06
2.31264e-06
2.22816e-06
2.16819e-06
2.1264e-06
2.09766e-06
2.07927e-06
2.06954e-06
2.06721e-06
2.07121e-06
2.08056e-06
2.09438e-06
2.11181e-06
2.13207e-06
2.15446e-06
2.17835e-06
2.20327e-06
2.2288e-06
2.25464e-06
2.28057e-06
2.3064e-06
2.33203e-06
2.35736e-06
2.38235e-06
2.40696e-06
2.43118e-06
2.45501e-06
2.47844e-06
2.50152e-06
2.52413e-06
2.54693e-06
2.56731e-06
2.59195e-06
2.61359e-06
2.63534e-06
2.65676e-06
2.67775e-06
2.69827e-06
2.71832e-06
2.73789e-06
2.75696e-06
2.77555e-06
2.79364e-06
2.81125e-06
2.82836e-06
2.84497e-06
2.86107e-06
2.87668e-06
2.89176e-06
2.90631e-06
2.92039e-06
2.93378e-06
2.94678e-06
2.95934e-06
2.97275e-06
2.98627e-06
2.99919e-06
3.17396e-06
3.12637e-06
3.07645e-06
3.02705e-06
2.97818e-06
2.92846e-06
2.87751e-06
2.82813e-06
2.78736e-06
2.7612e-06
2.753e-06
2.76206e-06
2.78378e-06
2.81135e-06
2.83943e-06
2.86184e-06
2.8711e-06
2.86396e-06
2.84024e-06
2.80429e-06
2.75947e-06
2.71171e-06
2.6647e-06
2.62103e-06
2.58112e-06
2.54533e-06
2.5137e-06
2.48597e-06
2.46172e-06
2.44043e-06
2.4216e-06
2.40484e-06
2.38994e-06
2.37685e-06
2.36572e-06
2.35679e-06
2.3504e-06
2.34688e-06
2.34649e-06
2.34938e-06
2.35552e-06
2.36476e-06
2.3768e-06
2.39127e-06
2.40773e-06
2.42575e-06
2.44492e-06
2.46485e-06
2.48525e-06
2.50585e-06
2.52646e-06
2.54693e-06
2.56716e-06
2.58707e-06
2.60662e-06
2.62579e-06
2.64456e-06
2.66294e-06
2.68093e-06
2.69856e-06
2.71575e-06
2.733e-06
2.74833e-06
2.76679e-06
2.78294e-06
2.7991e-06
2.81496e-06
2.83044e-06
2.84554e-06
2.86023e-06
2.87453e-06
2.88844e-06
2.90195e-06
2.91508e-06
2.92783e-06
2.9402e-06
2.95219e-06
2.9638e-06
2.97504e-06
2.98594e-06
2.99632e-06
3.00649e-06
3.01663e-06
3.02787e-06
3.03877e-06
3.05056e-06
3.06149e-06
3.07216e-06
3.18328e-06
3.15214e-06
3.12043e-06
3.08951e-06
3.05976e-06
3.03115e-06
3.00349e-06
2.97656e-06
2.95036e-06
2.9252e-06
2.90153e-06
2.87978e-06
2.86017e-06
2.84266e-06
2.82699e-06
2.81278e-06
2.79961e-06
2.78652e-06
2.7732e-06
2.75981e-06
2.74654e-06
2.73355e-06
2.72096e-06
2.70884e-06
2.69722e-06
2.6861e-06
2.67548e-06
2.66531e-06
2.65555e-06
2.64614e-06
2.63701e-06
2.62815e-06
2.61962e-06
2.61155e-06
2.60418e-06
2.59784e-06
2.59292e-06
2.58976e-06
2.5887e-06
2.58995e-06
2.5936e-06
2.59961e-06
2.60782e-06
2.61798e-06
2.62979e-06
2.64291e-06
2.65702e-06
2.67182e-06
2.68703e-06
2.70245e-06
2.7179e-06
2.73325e-06
2.74841e-06
2.76331e-06
2.77791e-06
2.79219e-06
2.80614e-06
2.81975e-06
2.83304e-06
2.84602e-06
2.85864e-06
2.87126e-06
2.88243e-06
2.89585e-06
2.90756e-06
2.91924e-06
2.93068e-06
2.94183e-06
2.95267e-06
2.96321e-06
2.97344e-06
2.98338e-06
2.99303e-06
3.00239e-06
3.01146e-06
3.02026e-06
3.02881e-06
3.03704e-06
3.04493e-06
3.05287e-06
3.06116e-06
3.07031e-06
3.07925e-06
3.08825e-06
3.0967e-06
3.10524e-06
3.11345e-06
3.12142e-06
3.18956e-06
3.16838e-06
3.1469e-06
3.12603e-06
3.10599e-06
3.0868e-06
3.06846e-06
3.0509e-06
3.0341e-06
3.01802e-06
3.00263e-06
2.98794e-06
2.97394e-06
2.96062e-06
2.94797e-06
2.93595e-06
2.92453e-06
2.91365e-06
2.90326e-06
2.89333e-06
2.88383e-06
2.87474e-06
2.86604e-06
2.85769e-06
2.84968e-06
2.84198e-06
2.83458e-06
2.82744e-06
2.82054e-06
2.81384e-06
2.8073e-06
2.80091e-06
2.79469e-06
2.78873e-06
2.78319e-06
2.77829e-06
2.7743e-06
2.77151e-06
2.77018e-06
2.7705e-06
2.77257e-06
2.77639e-06
2.78186e-06
2.78884e-06
2.79709e-06
2.80638e-06
2.81647e-06
2.82711e-06
2.8381e-06
2.84927e-06
2.86048e-06
2.87163e-06
2.88265e-06
2.89346e-06
2.90405e-06
2.91439e-06
2.92447e-06
2.93429e-06
2.94386e-06
2.95319e-06
2.96224e-06
2.97126e-06
2.97922e-06
2.98879e-06
2.99712e-06
3.00541e-06
3.01353e-06
3.02142e-06
3.02909e-06
3.03654e-06
3.04377e-06
3.05078e-06
3.05758e-06
3.06419e-06
3.07058e-06
3.07671e-06
3.08272e-06
3.08905e-06
3.09591e-06
3.10305e-06
3.10993e-06
3.11662e-06
3.12307e-06
3.12948e-06
3.13569e-06
3.14202e-06
3.14818e-06
3.15429e-06
3.19384e-06
3.17947e-06
3.16489e-06
3.15071e-06
3.13708e-06
3.12401e-06
3.11149e-06
3.0995e-06
3.08802e-06
3.07703e-06
3.06651e-06
3.05645e-06
3.04683e-06
3.03762e-06
3.02882e-06
3.0204e-06
3.01236e-06
3.00466e-06
2.99731e-06
2.99027e-06
2.98353e-06
2.97707e-06
2.97088e-06
2.96494e-06
2.95922e-06
2.95372e-06
2.94842e-06
2.94331e-06
2.93836e-06
2.93356e-06
2.92887e-06
2.92429e-06
2.91981e-06
2.91551e-06
2.91146e-06
2.90783e-06
2.90481e-06
2.90259e-06
2.90137e-06
2.90129e-06
2.90246e-06
2.90488e-06
2.90852e-06
2.91325e-06
2.91895e-06
2.92542e-06
2.9325e-06
2.94001e-06
2.9478e-06
2.95574e-06
2.96372e-06
2.97166e-06
2.97949e-06
2.98719e-06
2.99472e-06
3.00207e-06
3.00922e-06
3.01619e-06
3.02296e-06
3.02955e-06
3.03594e-06
3.0423e-06
3.0479e-06
3.05462e-06
3.06047e-06
3.06629e-06
3.07198e-06
3.07751e-06
3.08289e-06
3.0881e-06
3.09317e-06
3.09809e-06
3.1028e-06
3.10736e-06
3.11206e-06
3.11724e-06
3.12271e-06
3.12808e-06
3.13328e-06
3.13834e-06
3.14327e-06
3.14812e-06
3.15286e-06
3.15761e-06
3.16226e-06
3.16702e-06
3.17172e-06
3.17641e-06
3.19674e-06
3.18699e-06
3.17711e-06
3.1675e-06
3.15825e-06
3.14936e-06
3.14084e-06
3.13266e-06
3.12482e-06
3.1173e-06
3.11009e-06
3.10318e-06
3.09656e-06
3.09022e-06
3.08414e-06
3.07831e-06
3.07273e-06
3.06738e-06
3.06225e-06
3.05733e-06
3.05262e-06
3.04809e-06
3.04374e-06
3.03956e-06
3.03553e-06
3.03165e-06
3.0279e-06
3.02429e-06
3.02079e-06