/*--------------------------------*- C++ -*----------------------------------*\
| =========                 |                                                 |
| \\      /  F ield         | OpenFOAM: The Open Source CFD Toolbox           |
|  \\    /   O peration     | Version:  5.x                                   |
|   \\  /    A nd           | Web:      www.OpenFOAM.org                      |
|    \\/     M anipulation  |                                                 |
\*---------------------------------------------------------------------------*/
FoamFile
{
    version     2.0;
    format      ascii;
    class       surfaceScalarField;
    location    "100";
    object      phi;
}
// * * * * * * * * * * * * * * * * * * * * * * * * * * * * * * * * * * * * * //

dimensions      [0 3 -1 0 0 0 0];

internalField   nonuniform List<scalar> 
40747
(
1.92176e-05
-2.7211e-06
8.29749e-06
1.09201e-05
2.32016e-05
-5.9665e-06
1.57501e-05
1.5749e-05
2.79287e-05
-9.75359e-06
2.23692e-05
2.13096e-05
3.35149e-05
-1.40637e-05
2.85759e-05
2.73082e-05
4.01138e-05
-1.88477e-05
3.45342e-05
3.41554e-05
4.79228e-05
-2.4031e-05
4.02033e-05
4.22537e-05
5.71838e-05
-2.95117e-05
4.54284e-05
5.19588e-05
6.81857e-05
-3.51507e-05
4.99787e-05
6.36353e-05
8.12647e-05
-4.0751e-05
5.35654e-05
7.7678e-05
9.68117e-05
-4.60293e-05
5.58572e-05
9.45198e-05
0.000115299
-5.05981e-05
5.65229e-05
0.000114633
0.000137337
-5.39813e-05
5.53262e-05
0.000138534
0.000163759
-5.56933e-05
5.22947e-05
0.000166791
0.000195765
-5.54249e-05
4.79881e-05
0.000200071
0.000235086
-5.3364e-05
4.37323e-05
0.000239341
0.000284053
-5.05344e-05
4.10803e-05
0.000286705
0.000345248
-4.87325e-05
4.05626e-05
0.000345764
0.000419102
-4.7999e-05
4.03785e-05
0.000419285
0.000506918
-4.70303e-05
3.96642e-05
0.00050763
0.000613139
-4.57649e-05
3.87284e-05
0.000614073
0.000741746
-4.42484e-05
3.76118e-05
0.000742859
0.000897333
-4.24369e-05
3.62667e-05
0.000898675
0.00108557
-4.02827e-05
3.46497e-05
0.00108718
0.0013133
-3.77364e-05
3.27117e-05
0.00131523
0.00158882
-3.47449e-05
3.03947e-05
0.00159113
0.00192217
-3.12527e-05
2.76304e-05
0.00192493
0.00232547
-2.72014e-05
2.4338e-05
0.00232876
0.00281342
-2.25275e-05
2.04209e-05
0.00281732
0.00340375
-1.71543e-05
1.57617e-05
0.0034084
0.00411793
-1.09738e-05
1.02112e-05
0.00412347
0.00394589
-5.2688e-06
4.94544e-06
0.00395114
0.003946
3.30541e-07
-2.95955e-07
0.00395122
0.003946
5.93081e-06
-5.54553e-06
0.00395123
0.00394589
1.16388e-05
-1.08355e-05
0.00395117
0.00399301
1.76324e-05
-1.62584e-05
0.00399842
0.00332151
2.28672e-05
-2.085e-05
0.00332609
0.00276293
2.74428e-05
-2.4741e-05
0.00276681
0.00229829
3.14295e-05
-2.80368e-05
0.00230157
0.00191179
3.48853e-05
-3.08249e-05
0.00191457
0.00159031
3.78635e-05
-3.3179e-05
0.00159266
0.0013229
4.04148e-05
-3.51623e-05
0.00132487
0.00110046
4.25875e-05
-3.68291e-05
0.00110212
0.000915436
4.44274e-05
-3.82258e-05
0.000916829
0.000761528
4.59772e-05
-3.93924e-05
0.000762691
0.000633498
4.72802e-05
-4.03694e-05
0.000634472
0.000527021
4.83472e-05
-4.1184e-05
0.000527833
0.000438564
4.90966e-05
-4.16513e-05
0.000439029
0.000364436
5.01234e-05
-4.17398e-05
0.000364523
0.00030165
5.25009e-05
-4.31127e-05
0.000303021
0.000250372
5.50476e-05
-4.64936e-05
0.000253752
0.000209093
5.63569e-05
-5.0795e-05
0.000213394
0.000175554
5.58351e-05
-5.45783e-05
0.000179337
0.000147923
5.35209e-05
-5.68648e-05
0.000150209
0.000124874
4.97783e-05
-5.73577e-05
0.000125367
0.000105488
4.50585e-05
-5.61394e-05
0.00010427
8.91127e-05
3.97748e-05
-5.34674e-05
8.64406e-05
7.52581e-05
3.42536e-05
-4.96507e-05
7.14414e-05
6.35351e-05
2.87322e-05
-4.49847e-05
5.88691e-05
5.36135e-05
2.33802e-05
-3.97242e-05
4.8353e-05
4.52045e-05
1.83241e-05
-3.40724e-05
3.95527e-05
3.80613e-05
1.36621e-05
-2.81619e-05
3.21508e-05
3.19782e-05
9.46866e-06
-2.20157e-05
2.58319e-05
2.67916e-05
5.79106e-06
-1.5459e-05
2.02349e-05
2.23768e-05
2.64266e-06
-8.10558e-06
1.50234e-05
1.86387e-05
1.05331e-05
1.76646e-06
9.15362e-06
1.3837e-06
3.82759e-07
1.26458e-06
1.19118e-07
1.20605e-06
5.85293e-08
1.17322e-06
3.28362e-08
1.15282e-06
2.03994e-08
1.13948e-06
1.33336e-08
1.13066e-06
8.82148e-09
1.12482e-06
5.83821e-09
1.12101e-06
3.81078e-09
1.11864e-06
2.3732e-09
1.11732e-06
1.32091e-09
1.11679e-06
5.33357e-10
1.11685e-06
-6.31335e-11
1.11737e-06
-5.19066e-10
1.11825e-06
-8.69882e-10
1.11939e-06
-1.14303e-09
1.12075e-06
-1.35835e-09
1.12228e-06
-1.53224e-09
1.12396e-06
-1.67674e-09
1.12576e-06
-1.79793e-09
1.12766e-06
-1.89831e-09
1.12964e-06
-1.98118e-09
1.1317e-06
-2.05105e-09
1.13381e-06
-2.11067e-09
1.13597e-06
-2.16099e-09
1.13817e-06
-2.20226e-09
1.14041e-06
-2.2362e-09
1.14268e-06
-2.26585e-09
1.14497e-06
-2.29342e-09
1.14729e-06
-2.32004e-09
1.14964e-06
-2.34721e-09
1.15202e-06
-2.37615e-09
1.15443e-06
-2.40677e-09
1.15686e-06
-2.43857e-09
1.15934e-06
-2.47126e-09
1.16184e-06
-2.50459e-09
1.16438e-06
-2.53829e-09
1.16695e-06
-2.57196e-09
1.16955e-06
-2.60519e-09
1.17219e-06
-2.63869e-09
1.17487e-06
-2.67493e-09
1.17758e-06
-2.71687e-09
1.18035e-06
-2.7664e-09
1.18317e-06
-2.82521e-09
1.18607e-06
-2.89612e-09
1.18905e-06
-2.98283e-09
1.19214e-06
-3.08911e-09
1.19535e-06
-3.21828e-09
1.19872e-06
-3.37326e-09
1.20228e-06
-3.55822e-09
1.20605e-06
-3.77563e-09
1.21009e-06
-4.03468e-09
1.21441e-06
-4.33076e-09
1.2191e-06
-4.69193e-09
1.22419e-06
-5.0968e-09
1.2298e-06
-5.60724e-09
1.23598e-06
-6.188e-09
1.2429e-06
-6.92515e-09
1.25075e-06
-7.84649e-09
1.2598e-06
-9.04985e-09
1.27021e-06
-1.04083e-08
1.28025e-06
-1.00306e-08
1.28605e-06
-5.80102e-09
1.29254e-06
-6.47869e-09
1.29986e-06
-7.31578e-09
1.30729e-06
-7.40366e-09
1.31466e-06
-7.35641e-09
1.32199e-06
-7.29552e-09
1.32928e-06
-7.2611e-09
1.3366e-06
-7.26786e-09
1.34385e-06
-7.2108e-09
1.35146e-06
-7.52632e-09
1.35852e-06
-7.00543e-09
1.36664e-06
-7.99161e-09
1.3726e-06
-5.84455e-09
1.38069e-06
-7.8712e-09
1.38365e-06
-2.70478e-09
1.38916e-06
-5.07544e-09
1.38672e-06
3.0493e-09
1.38382e-06
3.75445e-09
1.37313e-06
1.1775e-08
1.35488e-06
1.95708e-08
1.33404e-06
2.22304e-08
1.32257e-06
1.28327e-08
1.30337e-06
2.03677e-08
1.71685e-06
-4.12428e-07
-7.27067e-07
2.44414e-06
6.47695e-06
1.84257e-05
5.24946e-06
1.61024e-06
4.81254e-06
5.56032e-07
4.59646e-06
2.74612e-07
4.47442e-06
1.54876e-07
4.39831e-06
9.65125e-08
4.34835e-06
6.32908e-08
4.31513e-06
4.20374e-08
4.29303e-06
2.79423e-08
4.2785e-06
1.83393e-08
4.26935e-06
1.15223e-08
4.26415e-06
6.52428e-09
4.26191e-06
2.7785e-09
4.26191e-06
-6.39819e-11
4.26364e-06
-2.24038e-09
4.26669e-06
-3.91798e-09
4.27077e-06
-5.22583e-09
4.27567e-06
-6.25714e-09
4.28123e-06
-7.08964e-09
4.28734e-06
-7.7799e-09
4.2939e-06
-8.35817e-09
4.30085e-06
-8.8365e-09
4.3081e-06
-9.23126e-09
4.31561e-06
-9.56324e-09
4.32335e-06
-9.84616e-09
4.33128e-06
-1.00845e-08
4.33936e-06
-1.02802e-08
4.34756e-06
-1.04408e-08
4.35588e-06
-1.05805e-08
4.3643e-06
-1.07097e-08
4.37281e-06
-1.08336e-08
4.38143e-06
-1.09593e-08
4.39014e-06
-1.10926e-08
4.39897e-06
-1.12333e-08
4.40791e-06
-1.13794e-08
4.41697e-06
-1.15294e-08
4.42615e-06
-1.16822e-08
4.43544e-06
-1.18366e-08
4.44486e-06
-1.19908e-08
4.4544e-06
-1.21427e-08
4.46405e-06
-1.22951e-08
4.47384e-06
-1.2459e-08
4.48377e-06
-1.26477e-08
4.49387e-06
-1.28697e-08
4.50417e-06
-1.31325e-08
4.51472e-06
-1.34484e-08
4.52557e-06
-1.38342e-08
4.53679e-06
-1.43068e-08
4.54845e-06
-1.48809e-08
4.56064e-06
-1.55694e-08
4.57347e-06
-1.63904e-08
4.58704e-06
-1.73541e-08
4.60151e-06
-1.85014e-08
4.61698e-06
-1.98081e-08
4.63368e-06
-2.14032e-08
4.65176e-06
-2.31801e-08
4.67157e-06
-2.5426e-08
4.69333e-06
-2.79594e-08
4.71758e-06
-3.11753e-08
4.74487e-06
-3.51401e-08
4.77611e-06
-4.02901e-08
4.81229e-06
-4.65827e-08
4.84857e-06
-4.63058e-08
4.87018e-06
-2.74026e-08
4.89286e-06
-2.91309e-08
4.91774e-06
-3.21838e-08
4.94321e-06
-3.28318e-08
4.96856e-06
-3.26885e-08
4.99377e-06
-3.24391e-08
5.01881e-06
-3.22654e-08
5.04396e-06
-3.23277e-08
5.06894e-06
-3.2134e-08
5.09522e-06
-3.36657e-08
5.11986e-06
-3.15468e-08
5.14854e-06
-3.64634e-08
5.17011e-06
-2.72291e-08
5.20005e-06
-3.74589e-08
5.21352e-06
-1.57479e-08
5.23559e-06
-2.64468e-08
5.23696e-06
2.63167e-09
5.22705e-06
1.50177e-08
5.21435e-06
2.61214e-08
5.13432e-06
1.01573e-07
5.10787e-06
5.07197e-08
4.96733e-06
1.55313e-07
4.91065e-06
7.86948e-08
5.81278e-06
-1.31307e-06
-2.14858e-07
5.30077e-06
1.20187e-05
2.77166e-05
1.0143e-05
3.48602e-06
9.45399e-06
1.245e-06
9.10608e-06
6.22524e-07
8.90605e-06
3.54897e-07
8.77983e-06
2.22735e-07
8.69626e-06
1.46857e-07
8.64032e-06
9.79841e-08
8.60287e-06
6.53864e-08
8.57813e-06
4.30832e-08
8.56245e-06
2.72043e-08
8.55344e-06
1.55338e-08
8.54945e-06
6.77026e-09
8.54929e-06
1.07216e-10
8.55205e-06
-5.00299e-09
8.55708e-06
-8.94851e-09
8.56389e-06
-1.20276e-08
8.57209e-06
-1.4457e-08
8.58142e-06
-1.64175e-08
8.59169e-06
-1.80411e-08
8.60273e-06
-1.93995e-08
8.61442e-06
-2.05218e-08
8.62664e-06
-2.14468e-08
8.6393e-06
-2.22229e-08
8.65234e-06
-2.28829e-08
8.6657e-06
-2.34379e-08
8.67931e-06
-2.38926e-08
8.69314e-06
-2.42651e-08
8.70715e-06
-2.45882e-08
8.72132e-06
-2.48855e-08
8.73566e-06
-2.51698e-08
8.75016e-06
-2.54572e-08
8.76483e-06
-2.57614e-08
8.77968e-06
-2.60821e-08
8.79471e-06
-2.64146e-08
8.80994e-06
-2.67558e-08
8.82536e-06
-2.71031e-08
8.84098e-06
-2.74539e-08
8.85679e-06
-2.78039e-08
8.8728e-06
-2.81483e-08
8.88899e-06
-2.84936e-08
8.9054e-06
-2.8864e-08
8.92204e-06
-2.92898e-08
8.93896e-06
-2.97904e-08
8.9562e-06
-3.03824e-08
8.97385e-06
-3.10935e-08
8.99197e-06
-3.19611e-08
9.01068e-06
-3.3023e-08
9.03011e-06
-3.43122e-08
9.0504e-06
-3.5857e-08
9.0717e-06
-3.76979e-08
9.0942e-06
-3.98562e-08
9.11812e-06
-4.24243e-08
9.14365e-06
-4.53438e-08
9.17114e-06
-4.89054e-08
9.20082e-06
-5.2863e-08
9.23325e-06
-5.78613e-08
9.26876e-06
-6.348e-08
9.30817e-06
-7.05936e-08
9.35235e-06
-7.93186e-08
9.40267e-06
-9.06104e-08
9.46093e-06
-1.04839e-07
9.52072e-06
-1.06087e-07
9.55724e-06
-6.39139e-08
9.59467e-06
-6.65358e-08
9.63534e-06
-7.2845e-08
9.67732e-06
-7.47692e-08
9.71941e-06
-7.47587e-08
9.76141e-06
-7.43777e-08
9.80335e-06
-7.41655e-08
9.84557e-06
-7.44557e-08
9.88767e-06
-7.4172e-08
9.93201e-06
-7.78744e-08
9.97372e-06
-7.31527e-08
1.00224e-05
-8.49717e-08
1.00596e-05
-6.42547e-08
1.01109e-05
-8.83288e-08
1.01373e-05
-4.1752e-08
1.01751e-05
-6.35936e-08
1.01883e-05
-9.54301e-09
1.01722e-05
3.23781e-08
1.01714e-05
2.8554e-08
1.00376e-05
2.37322e-07
1.00172e-05
7.30053e-08
9.75616e-06
4.18218e-07
9.61445e-06
2.21937e-07
1.06627e-05
-2.35984e-06
1.22082e-06
9.22713e-06
1.75466e-05
3.74782e-05
1.5024e-05
6.00862e-06
1.41319e-05
2.13709e-06
1.36979e-05
1.05655e-06
1.34519e-05
6.00888e-07
1.32976e-05
3.76998e-07
1.3196e-05
2.48478e-07
1.31284e-05
1.65533e-07
1.30837e-05
1.10127e-07
1.30546e-05
7.21875e-08
1.30366e-05
4.51575e-08
1.30269e-05
2.52772e-08
1.30233e-05
1.03405e-08
1.30245e-05
-1.02492e-09
1.30292e-05
-9.75148e-09
1.30368e-05
-1.65007e-08
1.30465e-05
-2.17794e-08
1.3058e-05
-2.5956e-08
1.30709e-05
-2.93386e-08
1.30851e-05
-3.21511e-08
1.31002e-05
-3.45119e-08
1.31161e-05
-3.6467e-08
1.31328e-05
-3.80832e-08
1.315e-05
-3.94444e-08
1.31677e-05
-4.06067e-08
1.31859e-05
-4.15884e-08
1.32044e-05
-4.2398e-08
1.32232e-05
-4.30676e-08
1.32422e-05
-4.3655e-08
1.32616e-05
-4.42005e-08
1.32811e-05
-4.47257e-08
1.33009e-05
-4.52594e-08
1.3321e-05
-4.58246e-08
1.33413e-05
-4.64188e-08
1.33619e-05
-4.70325e-08
1.33828e-05
-4.76606e-08
1.3404e-05
-4.82986e-08
1.34255e-05
-4.89426e-08
1.34473e-05
-4.95847e-08
1.34694e-05
-5.02173e-08
1.34917e-05
-5.08528e-08
1.35144e-05
-5.15343e-08
1.35374e-05
-5.23137e-08
1.35609e-05
-5.32243e-08
1.35848e-05
-5.42952e-08
1.36092e-05
-5.55748e-08
1.36344e-05
-5.7126e-08
1.36604e-05
-5.90125e-08
1.36874e-05
-6.12898e-08
1.37155e-05
-6.40059e-08
1.3745e-05
-6.72304e-08
1.37762e-05
-7.09993e-08
1.38092e-05
-7.54715e-08
1.38444e-05
-8.0547e-08
1.38822e-05
-8.67265e-08
1.3923e-05
-9.3586e-08
1.39673e-05
-1.02229e-07
1.40158e-05
-1.1193e-07
1.40693e-05
-1.24171e-07
1.41291e-05
-1.39124e-07
1.41971e-05
-1.58575e-07
1.42751e-05
-1.82876e-07
1.43577e-05
-1.88596e-07
1.44108e-05
-1.17043e-07
1.44655e-05
-1.2125e-07
1.4525e-05
-1.32316e-07
1.45872e-05
-1.36868e-07
1.46503e-05
-1.37844e-07
1.47139e-05
-1.37966e-07
1.47781e-05
-1.3832e-07
1.48432e-05
-1.39486e-07
1.49086e-05
-1.39448e-07
1.49774e-05
-1.46525e-07
1.50425e-05
-1.38215e-07
1.51176e-05
-1.59844e-07
1.5177e-05
-1.23454e-07
1.52555e-05
-1.66458e-07
1.53023e-05
-8.81472e-08
1.53624e-05
-1.22943e-07
1.53967e-05
-4.28507e-08
1.53854e-05
4.50173e-08
1.54077e-05
7.91239e-09
1.52455e-05
4.01506e-07
1.5236e-05
8.4504e-08
1.49129e-05
7.43126e-07
1.46723e-05
4.64128e-07
1.56978e-05
-3.38383e-06
3.13684e-06
1.37819e-05
2.36331e-05
4.80005e-05
2.03143e-05
9.32748e-06
1.9153e-05
3.29833e-06
1.86098e-05
1.59977e-06
1.83081e-05
9.02635e-07
1.81208e-05
5.64276e-07
1.79984e-05
3.70893e-07
1.79177e-05
2.46158e-07
1.7865e-05
1.62866e-07
1.78313e-05
1.05868e-07
1.78112e-05
6.52708e-08
1.78011e-05
3.54131e-08
1.77984e-05
1.29779e-08
1.78015e-05
-4.10304e-09
1.7809e-05
-1.72353e-08
1.78199e-05
-2.74147e-08
1.78335e-05
-3.54011e-08
1.78493e-05
-4.17455e-08
1.78669e-05
-4.6911e-08
1.7886e-05
-5.1231e-08
1.79064e-05
-5.48748e-08
1.79278e-05
-5.79048e-08
1.79501e-05
-6.04218e-08
1.79733e-05
-6.25544e-08
1.7997e-05
-6.4387e-08
1.80214e-05
-6.5946e-08
1.80463e-05
-6.72443e-08
1.80715e-05
-6.83335e-08
1.80972e-05
-6.93035e-08
1.81232e-05
-7.02147e-08
1.81496e-05
-7.10995e-08
1.81763e-05
-7.20034e-08
1.82034e-05
-7.29606e-08
1.8231e-05
-7.39634e-08
1.8259e-05
-7.49947e-08
1.82873e-05
-7.60468e-08
1.83162e-05
-7.71134e-08
1.83454e-05
-7.81891e-08
1.83751e-05
-7.92617e-08
1.84052e-05
-8.03205e-08
1.84357e-05
-8.13873e-08
1.84667e-05
-8.25304e-08
1.84982e-05
-8.38287e-08
1.85303e-05
-8.53326e-08
1.85631e-05
-8.70885e-08
1.85967e-05
-8.91711e-08
1.86313e-05
-9.1675e-08
1.86669e-05
-9.46945e-08
1.8704e-05
-9.83125e-08
1.87425e-05
-1.02602e-07
1.8783e-05
-1.07669e-07
1.88256e-05
-1.1357e-07
1.88706e-05
-1.20547e-07
1.89185e-05
-1.2845e-07
1.89698e-05
-1.38048e-07
1.90249e-05
-1.48692e-07
1.90848e-05
-1.62066e-07
1.91499e-05
-1.77054e-07
1.92216e-05
-1.95911e-07
1.93013e-05
-2.18811e-07
1.93916e-05
-2.48871e-07
1.94944e-05
-2.85707e-07
1.96063e-05
-3.00436e-07
1.96819e-05
-1.9267e-07
1.97604e-05
-1.99719e-07
1.98454e-05
-2.17325e-07
1.99349e-05
-2.26302e-07
2.00267e-05
-2.29599e-07
2.01201e-05
-2.31304e-07
2.0215e-05
-2.33159e-07
2.03119e-05
-2.36259e-07
2.04094e-05
-2.36894e-07
2.05121e-05
-2.4909e-07
2.06098e-05
-2.35845e-07
2.07213e-05
-2.71065e-07
2.08121e-05
-2.14053e-07
2.0928e-05
-2.81976e-07
2.10054e-05
-1.64986e-07
2.10975e-05
-2.14255e-07
2.11648e-05
-1.09021e-07
2.11693e-05
4.20829e-08
2.12268e-05
-4.76828e-08
2.10565e-05
5.74e-07
2.10616e-05
8.16482e-08
2.07293e-05
1.07759e-06
2.03706e-05
8.24516e-07
2.13959e-05
-4.40742e-06
5.13781e-06
1.93952e-05
3.08854e-05
5.93687e-05
2.66108e-05
1.36021e-05
2.50869e-05
4.82225e-06
2.43916e-05
2.29513e-06
2.4011e-05
1.28318e-06
2.37765e-05
7.98792e-07
2.36238e-05
5.2354e-07
2.35237e-05
3.4626e-07
2.34587e-05
2.27959e-07
2.34175e-05
1.47054e-07
2.33933e-05
8.94451e-08
2.33816e-05
4.70739e-08
2.33794e-05
1.52262e-08
2.33843e-05
-9.04489e-09
2.33949e-05
-2.77419e-08
2.34097e-05
-4.22792e-08
2.34281e-05
-5.37291e-08
2.34492e-05
-6.28682e-08
2.34726e-05
-7.03511e-08
2.3498e-05
-7.66456e-08
2.35252e-05
-8.19814e-08
2.35537e-05
-8.64396e-08
2.35834e-05
-9.01632e-08
2.36142e-05
-9.33375e-08
2.36459e-05
-9.6083e-08
2.36784e-05
-9.84366e-08
2.37116e-05
-1.00418e-07
2.37454e-05
-1.02104e-07
2.37797e-05
-1.03626e-07
2.38145e-05
-1.05068e-07
2.38499e-05
-1.06478e-07
2.38858e-05
-1.07921e-07
2.39223e-05
-1.09447e-07
2.39594e-05
-1.11039e-07
2.39971e-05
-1.12671e-07
2.40354e-05
-1.1433e-07
2.40743e-05
-1.1601e-07
2.41138e-05
-1.17704e-07
2.41539e-05
-1.19394e-07
2.41947e-05
-1.21066e-07
2.4236e-05
-1.22756e-07
2.42781e-05
-1.24564e-07
2.43208e-05
-1.26601e-07
2.43644e-05
-1.2894e-07
2.4409e-05
-1.3165e-07
2.44546e-05
-1.34839e-07
2.45016e-05
-1.38639e-07
2.45501e-05
-1.43184e-07
2.46004e-05
-1.48588e-07
2.46527e-05
-1.54955e-07
2.47075e-05
-1.62441e-07
2.4765e-05
-1.71122e-07
2.48258e-05
-1.81354e-07
2.48903e-05
-1.92916e-07
2.49592e-05
-2.06923e-07
2.50329e-05
-2.22435e-07
2.51127e-05
-2.41869e-07
2.51992e-05
-2.63609e-07
2.52942e-05
-2.90902e-07
2.53992e-05
-3.23776e-07
2.55177e-05
-3.67405e-07
2.56518e-05
-4.19796e-07
2.58011e-05
-4.49669e-07
2.59059e-05
-2.97534e-07
2.60155e-05
-3.09233e-07
2.61335e-05
-3.35319e-07
2.62581e-05
-3.50837e-07
2.63867e-05
-3.58217e-07
2.65185e-05
-3.63027e-07
2.6653e-05
-3.67606e-07
2.6791e-05
-3.74142e-07
2.69301e-05
-3.75854e-07
2.70768e-05
-3.9559e-07
2.72167e-05
-3.7557e-07
2.7375e-05
-4.29124e-07
2.75073e-05
-3.46112e-07
2.76709e-05
-4.45007e-07
2.77908e-05
-2.84267e-07
2.79238e-05
-3.46307e-07
2.80388e-05
-2.22668e-07
2.80694e-05
1.34246e-08
2.81754e-05
-1.51442e-07
2.80211e-05
7.31097e-07
2.80419e-05
6.35659e-08
2.77658e-05
1.35625e-06
2.72805e-05
1.31187e-06
2.8349e-05
-5.47388e-06
6.92686e-06
2.65603e-05
3.97909e-05
7.15366e-05
3.4391e-05
1.90019e-05
3.23871e-05
6.82611e-06
3.14831e-05
3.19912e-06
3.09932e-05
1.77316e-06
3.06923e-05
1.09963e-06
3.04966e-05
7.19268e-07
3.03681e-05
4.74742e-07
3.02845e-05
3.11624e-07
3.02314e-05
2.0008e-07
3.02002e-05
1.2064e-07
3.01851e-05
6.21847e-08
3.01822e-05
1.82115e-08
3.01885e-05
-1.53556e-08
3.0202e-05
-4.12864e-08
3.02213e-05
-6.15271e-08
3.02451e-05
-7.75441e-08
3.02726e-05
-9.03955e-08
3.03033e-05
-1.00976e-07
3.03365e-05
-1.09921e-07
3.03721e-05
-1.17539e-07
3.04096e-05
-1.23936e-07
3.04488e-05
-1.29309e-07
3.04893e-05
-1.33915e-07
3.05312e-05
-1.37921e-07
3.05741e-05
-1.41382e-07
3.0618e-05
-1.44326e-07
3.06628e-05
-1.46864e-07
3.07084e-05
-1.49178e-07
3.07547e-05
-1.51384e-07
3.08017e-05
-1.53546e-07
3.08496e-05
-1.55759e-07
3.08982e-05
-1.58089e-07
3.09477e-05
-1.60511e-07
3.0998e-05
-1.62985e-07
3.10492e-05
-1.65496e-07
3.11012e-05
-1.68034e-07
3.11541e-05
-1.70593e-07
3.12079e-05
-1.73151e-07
3.12625e-05
-1.75691e-07
3.1318e-05
-1.78262e-07
3.13744e-05
-1.81006e-07
3.14319e-05
-1.84074e-07
3.14905e-05
-1.87565e-07
3.15504e-05
-1.91577e-07
3.16119e-05
-1.96261e-07
3.1675e-05
-2.01795e-07
3.17402e-05
-2.08357e-07
3.18077e-05
-2.16104e-07
3.18779e-05
-2.25177e-07
3.19512e-05
-2.35795e-07
3.20282e-05
-2.48057e-07
3.21093e-05
-2.62466e-07
3.21951e-05
-2.78707e-07
3.22865e-05
-2.98332e-07
3.2384e-05
-3.20031e-07
3.24893e-05
-3.47132e-07
3.2603e-05
-3.77377e-07
3.27274e-05
-4.15309e-07
3.28642e-05
-4.60524e-07
3.3018e-05
-5.21245e-07
3.3191e-05
-5.92819e-07
3.33873e-05
-6.45857e-07
3.35295e-05
-4.39725e-07
3.36789e-05
-4.58673e-07
3.38391e-05
-4.95408e-07
3.40082e-05
-5.19894e-07
3.41836e-05
-5.33565e-07
3.43642e-05
-5.43538e-07
3.45491e-05
-5.52407e-07
3.47396e-05
-5.64461e-07
3.49314e-05
-5.67611e-07
3.51342e-05
-5.98094e-07
3.53279e-05
-5.69054e-07
3.55454e-05
-6.46316e-07
3.57321e-05
-5.32427e-07
3.59543e-05
-6.66594e-07
3.61326e-05
-4.61709e-07
3.63154e-05
-5.27916e-07
3.64965e-05
-4.02025e-07
3.65647e-05
-5.23444e-08
3.67334e-05
-3.17181e-07
3.66241e-05
8.43764e-07
3.66587e-05
3.23802e-08
3.6504e-05
1.51414e-06
3.59158e-05
1.90271e-06
3.70013e-05
-6.55697e-06
8.26508e-06
3.56637e-05
5.08412e-05
8.43307e-05
4.41458e-05
2.56974e-05
4.15136e-05
9.45828e-06
4.03251e-05
4.38763e-06
3.96842e-05
2.41401e-06
3.92912e-05
1.4926e-06
3.90349e-05
9.75572e-07
3.88658e-05
6.43874e-07
3.87548e-05
4.22576e-07
3.86838e-05
2.71149e-07
3.86412e-05
1.63218e-07
3.86197e-05
8.37152e-08
3.86141e-05
2.38236e-08
3.86207e-05
-2.2002e-08
3.8637e-05
-5.75312e-08
3.86609e-05
-8.53968e-08
3.86909e-05
-1.07566e-07
3.87259e-05
-1.25455e-07
3.87652e-05
-1.40258e-07
3.88082e-05
-1.52828e-07
3.88542e-05
-1.63577e-07
3.89029e-05
-1.72648e-07
3.89539e-05
-1.80309e-07
3.90069e-05
-1.86908e-07
3.90617e-05
-1.92676e-07
3.9118e-05
-1.97692e-07
3.91757e-05
-2.02002e-07
3.92346e-05
-2.05759e-07
3.92946e-05
-2.09208e-07
3.93557e-05
-2.12506e-07
3.94179e-05
-2.15737e-07
3.94812e-05
-2.19033e-07
3.95456e-05
-2.22484e-07
3.96112e-05
-2.26058e-07
3.96779e-05
-2.29698e-07
3.97458e-05
-2.33384e-07
3.98148e-05
-2.37108e-07
3.98851e-05
-2.40864e-07
3.99566e-05
-2.44625e-07
4.00293e-05
-2.48372e-07
4.01032e-05
-2.52174e-07
4.01784e-05
-2.56218e-07
4.0255e-05
-2.60703e-07
4.03332e-05
-2.65763e-07
4.04131e-05
-2.71531e-07
4.04951e-05
-2.78209e-07
4.05793e-05
-2.86032e-07
4.06662e-05
-2.95231e-07
4.07561e-05
-3.06016e-07
4.08495e-05
-3.18574e-07
4.09469e-05
-3.33204e-07
4.10488e-05
-3.50032e-07
4.11561e-05
-3.69749e-07
4.12693e-05
-3.91914e-07
4.13896e-05
-4.18624e-07
4.15176e-05
-4.48102e-07
4.16553e-05
-4.84801e-07
4.18035e-05
-5.25637e-07
4.19651e-05
-5.76858e-07
4.21417e-05
-6.37153e-07
4.23396e-05
-7.19129e-07
4.25609e-05
-8.14178e-07
4.28158e-05
-9.0072e-07
4.30054e-05
-6.29253e-07
4.32059e-05
-6.59173e-07
4.34196e-05
-7.09092e-07
4.36452e-05
-7.45306e-07
4.38796e-05
-7.67925e-07
4.41219e-05
-7.85751e-07
4.43705e-05
-8.0089e-07
4.46275e-05
-8.21271e-07
4.48864e-05
-8.26312e-07
4.51601e-05
-8.71496e-07
4.54227e-05
-8.31332e-07
4.57143e-05
-9.37418e-07
4.59723e-05
-7.90045e-07
4.62662e-05
-9.59587e-07
4.65232e-05
-7.17719e-07
4.6767e-05
-7.70019e-07
4.70355e-05
-6.68308e-07
4.71571e-05
-1.70858e-07
4.74022e-05
-5.5858e-07
4.73709e-05
8.79326e-07
4.74225e-05
-1.49191e-08
4.7427e-05
1.51347e-06
4.68168e-05
2.51614e-06
4.77899e-05
-7.52711e-06
9.00167e-06
4.70542e-05
6.45827e-05
9.7426e-05
5.64455e-05
3.38347e-05
5.30007e-05
1.2903e-05
5.14251e-05
5.96326e-06
5.05764e-05
3.26267e-06
5.00558e-05
2.01324e-06
4.97147e-05
1.31661e-06
4.94879e-05
8.70757e-07
4.93373e-05
5.73128e-07
4.92393e-05
3.69178e-07
4.91789e-05
2.23598e-07
4.91464e-05
1.16185e-07
4.91352e-05
3.51039e-08
4.91403e-05
-2.71192e-08
4.91583e-05
-7.55698e-08
4.91867e-05
-1.13778e-07
4.92235e-05
-1.44359e-07
4.92673e-05
-1.69183e-07
4.93169e-05
-1.89827e-07
4.93715e-05
-2.07418e-07
4.94304e-05
-2.22514e-07
4.94931e-05
-2.3532e-07
4.9559e-05
-2.46194e-07
4.96277e-05
-2.55599e-07
4.96989e-05
-2.6385e-07
4.97723e-05
-2.71069e-07
4.98476e-05
-2.77328e-07
4.99247e-05
-2.82834e-07
5.00034e-05
-2.8791e-07
5.00836e-05
-2.92763e-07
5.01654e-05
-2.97509e-07
5.02487e-05
-3.02321e-07
5.03336e-05
-3.07325e-07
5.042e-05
-3.12483e-07
5.0508e-05
-3.17722e-07
5.05976e-05
-3.23018e-07
5.06889e-05
-3.28365e-07
5.07818e-05
-3.3376e-07
5.08763e-05
-3.39176e-07
5.09726e-05
-3.4459e-07
5.10705e-05
-3.50094e-07
5.11702e-05
-3.55926e-07
5.12718e-05
-3.62344e-07
5.13756e-05
-3.69522e-07
5.14817e-05
-3.77638e-07
5.15904e-05
-3.86954e-07
5.17021e-05
-3.97773e-07
5.18173e-05
-4.10392e-07
5.19363e-05
-4.25086e-07
5.20599e-05
-4.42097e-07
5.21885e-05
-4.61829e-07
5.23228e-05
-4.84429e-07
5.24639e-05
-5.10838e-07
5.26124e-05
-5.40441e-07
5.27698e-05
-5.76012e-07
5.29368e-05
-6.15187e-07
5.31158e-05
-6.63794e-07
5.33078e-05
-7.17685e-07
5.35163e-05
-7.85368e-07
5.37431e-05
-8.63909e-07
5.3996e-05
-9.72026e-07
5.42774e-05
-1.09558e-06
5.46055e-05
-1.22884e-06
5.48549e-05
-8.78607e-07
5.51206e-05
-9.24746e-07
5.54025e-05
-9.90933e-07
5.56993e-05
-1.04203e-06
5.60082e-05
-1.07671e-06
5.63284e-05
-1.10575e-06
5.66573e-05
-1.12966e-06
5.69983e-05
-1.16196e-06
5.7342e-05
-1.16984e-06
5.7705e-05
-1.234e-06
5.80561e-05
-1.1821e-06
5.84395e-05
-1.32017e-06
5.87918e-05
-1.1417e-06
5.91733e-05
-1.34004e-06
5.95347e-05
-1.07775e-06
5.98559e-05
-1.08912e-06
6.02357e-05
-1.04522e-06
6.04333e-05
-3.64623e-07
6.07731e-05
-8.93754e-07
6.08477e-05
8.0997e-07
6.09451e-05
-1.07036e-07
6.10951e-05
1.36817e-06
6.05984e-05
3.01673e-06
6.12521e-05
-8.17731e-06
9.12463e-06
6.11304e-05
8.16333e-05
0.000110312
7.19775e-05
4.34904e-05
6.75017e-05
1.73788e-05
6.54017e-05
8.06328e-06
6.42667e-05
4.39759e-06
6.35693e-05
2.71069e-06
6.311e-05
1.77591e-06
6.28014e-05
1.17931e-06
6.25938e-05
7.80703e-07
6.24561e-05
5.06973e-07
6.23685e-05
3.11175e-07
6.23183e-05
1.66391e-07
6.22966e-05
5.68163e-08
6.2297e-05
-2.75649e-08
6.23151e-05
-9.35826e-08
6.23473e-05
-1.45955e-07
6.23911e-05
-1.88143e-07
6.24445e-05
-2.22606e-07
6.25061e-05
-2.51404e-07
6.25747e-05
-2.76016e-07
6.26494e-05
-2.97208e-07
6.27294e-05
-3.15279e-07
6.28139e-05
-3.30705e-07
6.29024e-05
-3.44094e-07
6.29945e-05
-3.55876e-07
6.30897e-05
-3.66235e-07
6.31876e-05
-3.75291e-07
6.32881e-05
-3.83314e-07
6.33909e-05
-3.90724e-07
6.3496e-05
-3.97794e-07
6.36032e-05
-4.04682e-07
6.37125e-05
-4.11615e-07
6.38239e-05
-4.18763e-07
6.39375e-05
-4.26093e-07
6.40533e-05
-4.33518e-07
6.41713e-05
-4.41011e-07
6.42915e-05
-4.4857e-07
6.4414e-05
-4.56199e-07
6.45387e-05
-4.63874e-07
6.46656e-05
-4.71574e-07
6.47949e-05
-4.79417e-07
6.49267e-05
-4.87694e-07
6.50611e-05
-4.96729e-07
6.51983e-05
-5.06751e-07
6.53386e-05
-5.17991e-07
6.54825e-05
-5.30781e-07
6.56302e-05
-5.45504e-07
6.57823e-05
-5.62535e-07
6.59394e-05
-5.82232e-07
6.61022e-05
-6.04903e-07
6.62715e-05
-6.31084e-07
6.6448e-05
-6.60941e-07
6.66328e-05
-6.95732e-07
6.6827e-05
-7.34617e-07
6.70321e-05
-7.81193e-07
6.72492e-05
-8.32369e-07
6.74811e-05
-8.95648e-07
6.77288e-05
-9.65487e-07
6.79968e-05
-1.05342e-06
6.82868e-05
-1.15386e-06
6.86086e-05
-1.29383e-06
6.89648e-05
-1.45175e-06
6.93845e-05
-1.64853e-06
6.97094e-05
-1.20345e-06
7.00578e-05
-1.27301e-06
7.04262e-05
-1.35933e-06
7.08134e-05
-1.429e-06
7.12161e-05
-1.47934e-06
7.16343e-05
-1.52362e-06
7.20643e-05
-1.55953e-06
7.25107e-05
-1.60791e-06
7.29621e-05
-1.62099e-06
7.34362e-05
-1.70758e-06
7.39018e-05
-1.64724e-06
7.43984e-05
-1.8159e-06
7.48747e-05
-1.6172e-06
7.53654e-05
-1.82937e-06
7.58622e-05
-1.57284e-06
7.62868e-05
-1.511e-06
7.68067e-05
-1.56159e-06
7.71099e-05
-6.63102e-07
7.75791e-05
-1.35735e-06
7.77751e-05
6.20364e-07
7.79858e-05
-3.11471e-07
7.8237e-05
1.12242e-06
7.79788e-05
3.27942e-06
7.81121e-05
-8.30657e-06
8.76843e-06
7.847e-05
0.000102678
0.000122268
9.15707e-05
5.45973e-05
8.58261e-05
2.31234e-05
8.30229e-05
1.08664e-05
8.14944e-05
5.92609e-06
8.05523e-05
3.65284e-06
7.99282e-05
2.39995e-06
7.95046e-05
1.60295e-06
7.92154e-05
1.06988e-06
7.90196e-05
7.0283e-07
7.88912e-05
4.39597e-07
7.88131e-05
2.44422e-07
7.87737e-05
9.6256e-08
7.87645e-05
-1.82794e-08
7.87792e-05
-1.08333e-07
7.88135e-05
-1.80211e-07
7.88639e-05
-2.38499e-07
7.89277e-05
-2.86427e-07
7.9003e-05
-3.2667e-07
7.90882e-05
-3.61163e-07
7.9182e-05
-3.90954e-07
7.92832e-05
-4.16493e-07
7.93909e-05
-4.38413e-07
7.95044e-05
-4.57498e-07
7.96228e-05
-4.74333e-07
7.97458e-05
-4.89198e-07
7.98728e-05
-5.02282e-07
8.00035e-05
-5.1394e-07
8.01375e-05
-5.24707e-07
8.02746e-05
-5.34945e-07
8.04148e-05
-5.44869e-07
8.0558e-05
-5.54773e-07
8.07041e-05
-5.64887e-07
8.08532e-05
-5.75194e-07
8.10053e-05
-5.85604e-07
8.11604e-05
-5.96089e-07
8.13185e-05
-6.06655e-07
8.14796e-05
-6.17319e-07
8.16438e-05
-6.28067e-07
8.18111e-05
-6.38886e-07
8.19816e-05
-6.4992e-07
8.21554e-05
-6.61522e-07
8.23328e-05
-6.74091e-07
8.25139e-05
-6.87919e-07
8.26992e-05
-7.03301e-07
8.28891e-05
-7.20652e-07
8.3084e-05
-7.40447e-07
8.32846e-05
-7.63154e-07
8.34916e-05
-7.89234e-07
8.37057e-05
-8.19073e-07
8.3928e-05
-8.53376e-07
8.41593e-05
-8.9232e-07
8.44011e-05
-9.37558e-07
8.46544e-05
-9.8797e-07
8.49213e-05
-1.04814e-06
8.52029e-05
-1.11408e-06
8.55026e-05
-1.19535e-06
8.58216e-05
-1.28453e-06
8.61653e-05
-1.39721e-06
8.65352e-05
-1.5238e-06
8.69437e-05
-1.70229e-06
8.73934e-05
-1.90139e-06
8.79279e-05
-2.18298e-06
8.8348e-05
-1.62353e-06
8.88013e-05
-1.72614e-06
8.92795e-05
-1.8375e-06
8.97809e-05
-1.93012e-06
9.03021e-05
-2.00041e-06
9.08434e-05
-2.06452e-06
9.14009e-05
-2.11679e-06
9.19789e-05
-2.18537e-06
9.25672e-05
-2.20895e-06
9.31791e-05
-2.31876e-06
9.3793e-05
-2.26057e-06
9.4429e-05
-2.45083e-06
9.50681e-05
-2.25526e-06
9.56969e-05
-2.45646e-06
9.63694e-05
-2.24318e-06
9.69341e-05
-2.07247e-06
9.76362e-05
-2.25939e-06
9.80856e-05
-1.10691e-06
9.87389e-05
-2.00402e-06
9.90927e-05
2.73851e-07
9.94776e-05
-6.89296e-07
9.98659e-05
7.40272e-07
9.98728e-05
3.27738e-06
9.93795e-05
-7.80879e-06
8.19081e-06
9.99593e-05
0.000128437
0.000132364
0.000116203
6.68316e-05
0.000108975
3.03511e-05
0.000105248
1.45937e-05
0.000103182
7.99196e-06
0.000101902
4.93264e-06
0.000101049
3.25281e-06
0.000100464
2.18801e-06
0.000100059
1.4751e-06
9.97791e-05
9.82681e-07
9.95902e-05
6.28478e-07
9.94696e-05
3.65048e-07
9.94015e-05
1.64373e-07
9.93747e-05
8.61605e-09
9.93808e-05
-1.1445e-07
9.94139e-05
-2.13262e-07
9.94694e-05
-2.93922e-07
9.95437e-05
-3.60689e-07
9.96341e-05
-4.17028e-07
9.97384e-05
-4.65462e-07
9.98549e-05
-5.07428e-07
9.99821e-05
-5.43599e-07
0.000100119
-5.74815e-07
0.000100263
-6.02084e-07
0.000100415
-6.26186e-07
0.000100573
-6.47544e-07
0.000100738
-6.6645e-07
0.000100907
-6.83373e-07
0.000101081
-6.98983e-07
0.00010126
-7.13759e-07
0.000101443
-7.27999e-07
0.000101631
-7.42078e-07
0.000101822
-7.56308e-07
0.000102018
-7.70709e-07
0.000102217
-7.852e-07
0.000102421
-7.99761e-07
0.000102629
-8.14413e-07
0.000102841
-8.29194e-07
0.000103057
-8.44108e-07
0.000103277
-8.59162e-07
0.000103501
-8.74531e-07
0.000103731
-8.90634e-07
0.000103964
-9.07953e-07
0.000104203
-9.26857e-07
0.000104448
-9.47721e-07
0.000104698
-9.71049e-07
0.000104955
-9.97425e-07
0.000105219
-1.02743e-06
0.000105492
-1.06164e-06
0.000105773
-1.10054e-06
0.000106065
-1.14504e-06
0.000106368
-1.19533e-06
0.000106684
-1.25354e-06
0.000107014
-1.31822e-06
0.000107361
-1.39511e-06
0.000107726
-1.47914e-06
0.000108112
-1.58237e-06
0.000108523
-1.69488e-06
0.000108963
-1.83764e-06
0.000109435
-1.99529e-06
0.000109952
-2.22013e-06
0.000110519
-2.46835e-06
0.000111198
-2.86161e-06
0.000111739
-2.16388e-06
0.000112325
-2.31207e-06
0.000112942
-2.45461e-06
0.000113588
-2.57549e-06
0.000114259
-2.6711e-06
0.000114955
-2.76018e-06
0.000115673
-2.83497e-06
0.000116416
-2.9274e-06
0.000117179
-2.97121e-06
0.000117962
-3.10161e-06
0.000118768
-3.06553e-06
0.000119579
-3.26084e-06
0.000120432
-3.1062e-06
0.000121241
-3.26371e-06
0.000122144
-3.14405e-06
0.00012291
-2.83415e-06
0.000123843
-3.1882e-06
0.000124546
-1.80281e-06
0.000125392
-2.84274e-06
0.000126098
-4.24009e-07
0.000126592
-1.17542e-06
0.000127338
-1.50763e-10
0.000127528
3.09252e-06
0.000126502
-6.77768e-06
7.86029e-06
0.000126835
0.000159605
0.000139551
0.000146976
7.946e-05
0.000138167
3.916e-05