/*--------------------------------*- C++ -*----------------------------------*\
| =========                 |                                                 |
| \\      /  F ield         | OpenFOAM: The Open Source CFD Toolbox           |
|  \\    /   O peration     | Version:  5.x                                   |
|   \\  /    A nd           | Web:      www.OpenFOAM.org                      |
|    \\/     M anipulation  |                                                 |
\*---------------------------------------------------------------------------*/
FoamFile
{
    version     2.0;
    format      ascii;
    class       volScalarField;
    location    "50";
    object      nut;
}
// * * * * * * * * * * * * * * * * * * * * * * * * * * * * * * * * * * * * * //

dimensions      [0 2 -1 0 0 0 0];

internalField   nonuniform List<scalar> 
20540
(
4.19013e-06
6.81471e-06
4.28764e-06
6.91534e-06
4.57082e-06
7.14587e-06
4.99763e-06
7.42646e-06
5.48682e-06
7.86573e-06
5.90051e-06
9.13649e-06
6.09843e-06
1.32897e-05
6.14624e-06
2.14835e-05
6.7222e-06
3.35426e-05
9.08012e-06
4.7037e-05
1.25972e-05
5.79613e-05
1.55346e-05
6.19753e-05
1.57467e-05
5.52928e-05
1.24537e-05
3.72579e-05
7.7105e-06
1.77258e-05
4.56168e-06
8.45759e-06
3.57129e-06
4.87722e-06
3.27913e-06
3.63819e-06
3.202e-06
3.30849e-06
3.19552e-06
3.23873e-06
3.19785e-06
3.22279e-06
3.20003e-06
3.21617e-06
3.20149e-06
3.21189e-06
3.20244e-06
3.20902e-06
3.20306e-06
3.20709e-06
3.20346e-06
3.20578e-06
3.20371e-06
3.2049e-06
3.20385e-06
3.2043e-06
3.20392e-06
3.20389e-06
3.20392e-06
3.2036e-06
3.20386e-06
3.20337e-06
3.20367e-06
3.20302e-06
3.20366e-06
3.20302e-06
3.20381e-06
3.20325e-06
3.20391e-06
3.20357e-06
3.2039e-06
3.20385e-06
3.20385e-06
3.20424e-06
3.20372e-06
3.2048e-06
3.20349e-06
3.20561e-06
3.20314e-06
3.20679e-06
3.20258e-06
3.20852e-06
3.20174e-06
3.21104e-06
3.20047e-06
3.21474e-06
3.19857e-06
3.22023e-06
3.19586e-06
3.23002e-06
3.19626e-06
3.2629e-06
3.22043e-06
3.40141e-06
3.35241e-06
3.96352e-06
3.76169e-06
5.68425e-06
5.24611e-06
1.00841e-05
8.51484e-06
2.07803e-05
1.22348e-05
3.80287e-05
1.39327e-05
5.10154e-05
1.27938e-05
5.38588e-05
1.00029e-05
4.81835e-05
7.30868e-06
3.76013e-05
5.79927e-06
2.59868e-05
5.64017e-06
1.65255e-05
5.63433e-06
1.06459e-05
5.43632e-06
7.99284e-06
5.069e-06
7.22291e-06
4.65864e-06
6.92096e-06
4.30934e-06
6.68907e-06
4.07953e-06
6.48553e-06
4.00038e-06
6.39571e-06
1.8305e-08
1.0905e-08
9.72044e-09
9.33374e-09
9.19354e-09
9.13941e-09
9.12389e-09
9.13107e-09
9.15155e-09
9.17928e-09
9.21141e-09
9.24646e-09
9.28351e-09
9.32171e-09
9.36063e-09
9.40011e-09
9.4402e-09
9.48096e-09
9.5228e-09
9.56606e-09
9.61054e-09
9.65582e-09
9.7018e-09
9.74854e-09
9.7959e-09
9.84363e-09
9.89153e-09
9.93975e-09
9.98861e-09
1.00382e-08
1.00887e-08
1.01404e-08
1.01936e-08
1.02481e-08
1.03037e-08
1.03605e-08
1.04182e-08
1.04766e-08
1.05355e-08
1.05947e-08
1.06546e-08
1.07155e-08
1.07776e-08
1.08411e-08
1.09066e-08
1.09746e-08
1.10456e-08
1.11198e-08
1.11975e-08
1.12792e-08
1.13651e-08
1.14557e-08
1.15518e-08
1.16549e-08
1.17673e-08
1.18899e-08
1.20257e-08
1.21767e-08
1.2347e-08
1.2544e-08
1.27628e-08
1.30328e-08
1.3359e-08
1.35833e-08
1.375e-08
1.39734e-08
1.4277e-08
1.46897e-08
1.518e-08
1.57768e-08
1.63954e-08
1.71267e-08
1.78169e-08
1.86884e-08
1.94478e-08
2.05226e-08
2.14014e-08
2.27452e-08
2.39154e-08
2.54506e-08
2.7513e-08
2.86031e-08
3.30698e-08
3.27641e-08
3.87949e-08
4.50413e-08
2.87698e-08
1.65005e-08
1.44674e-06
9.64732e-07
8.51339e-07
8.13324e-07
7.98819e-07
7.92867e-07
7.90775e-07
7.90916e-07
7.92379e-07
7.94579e-07
7.97223e-07
8.00161e-07
8.03298e-07
8.0655e-07
8.0987e-07
8.13243e-07
8.16669e-07
8.20152e-07
8.23725e-07
8.27415e-07
8.31205e-07
8.3506e-07
8.3897e-07
8.42943e-07
8.46964e-07
8.51014e-07
8.55073e-07
8.59151e-07
8.63276e-07
8.67457e-07
8.71705e-07
8.76051e-07
8.80512e-07
8.85072e-07
8.89722e-07
8.9446e-07
8.99271e-07
9.04139e-07
9.09036e-07
9.1395e-07
9.18906e-07
9.23939e-07
9.29064e-07
9.3429e-07
9.39658e-07
9.45216e-07
9.50998e-07
9.57026e-07
9.63323e-07
9.69912e-07
9.76827e-07
9.84081e-07
9.91737e-07
9.99904e-07
1.00876e-06
1.01837e-06
1.02895e-06
1.04065e-06
1.05372e-06
1.06879e-06
1.08523e-06
1.10539e-06
1.13064e-06
1.14688e-06
1.15756e-06
1.17106e-06
1.19016e-06
1.21798e-06
1.25196e-06
1.29446e-06
1.3384e-06
1.39073e-06
1.43904e-06
1.49993e-06
1.55124e-06
1.62351e-06
1.68047e-06
1.76634e-06
1.8396e-06
1.93054e-06
2.05611e-06
2.10984e-06
2.36914e-06
2.3302e-06
2.71288e-06
2.77704e-06
2.80894e-06
5.95579e-06
1.16499e-05
9.44625e-06
8.25286e-06
7.825e-06
7.65378e-06
7.57888e-06
7.54749e-06
7.54071e-06
7.54857e-06
7.56475e-06
7.58589e-06
7.61025e-06
7.63674e-06
7.66441e-06
7.69271e-06
7.72145e-06
7.75061e-06
7.7802e-06
7.81048e-06
7.84169e-06
7.87367e-06
7.90605e-06
7.93875e-06
7.97185e-06
8.00523e-06
8.03864e-06
8.07191e-06
8.10509e-06
8.13843e-06
8.17204e-06
8.20601e-06
8.24057e-06
8.27584e-06
8.31167e-06
8.34801e-06
8.38483e-06
8.422e-06
8.45931e-06
8.4965e-06
8.53343e-06
8.5703e-06
8.60741e-06
8.64491e-06
8.68281e-06
8.72136e-06
8.76092e-06
8.80177e-06
8.84405e-06
8.88788e-06
8.93334e-06
8.9806e-06
9.02961e-06
9.08072e-06
9.13469e-06
9.19279e-06
9.25537e-06
9.32367e-06
9.39858e-06
9.48121e-06
9.57677e-06
9.6772e-06
9.80036e-06
9.97236e-06
1.00133e-05
9.99935e-06
9.98821e-06
1.00134e-05
1.01071e-05
1.0248e-05
1.04501e-05
1.06555e-05
1.09089e-05
1.11204e-05
1.13941e-05
1.15882e-05
1.18774e-05
1.20569e-05
1.23494e-05
1.25462e-05
1.27871e-05
1.30842e-05
1.31556e-05
1.36169e-05
1.35192e-05
1.38746e-05
1.35499e-05
1.3844e-05
2.37774e-05
3.26504e-05
3.21981e-05
2.90018e-05
2.76155e-05
2.70249e-05
2.67483e-05
2.66143e-05
2.65598e-05
2.65528e-05
2.65729e-05
2.66089e-05
2.6655e-05
2.67074e-05
2.6763e-05
2.68198e-05
2.68772e-05
2.6935e-05
2.69931e-05
2.70524e-05
2.71132e-05
2.7175e-05
2.72368e-05
2.72983e-05
2.73598e-05
2.74209e-05
2.74809e-05
2.75392e-05
2.75959e-05
2.76517e-05
2.77069e-05
2.77617e-05
2.78166e-05
2.78719e-05
2.7927e-05
2.79819e-05
2.80366e-05
2.80907e-05
2.81434e-05
2.81941e-05
2.82424e-05
2.82887e-05
2.83338e-05
2.83781e-05
2.84215e-05
2.84642e-05
2.85071e-05
2.85506e-05
2.85951e-05
2.86407e-05
2.86871e-05
2.87345e-05
2.87822e-05
2.88308e-05
2.88817e-05
2.89373e-05
2.8998e-05
2.90651e-05
2.91405e-05
2.9224e-05
2.93277e-05
2.94289e-05
2.95591e-05
2.98286e-05
2.95977e-05
2.92288e-05
2.88297e-05
2.8499e-05
2.83265e-05
2.82707e-05
2.83546e-05
2.84525e-05
2.86374e-05
2.8736e-05
2.89174e-05
2.89472e-05
2.90789e-05
2.90287e-05
2.90577e-05
2.89476e-05
2.87842e-05
2.86172e-05
2.8216e-05
2.77118e-05
2.73773e-05
2.58908e-05
2.47688e-05
2.47852e-05
2.39158e-05
5.63185e-05
6.13141e-05
5.66135e-05
5.41494e-05
5.30317e-05
5.24768e-05
5.21812e-05
5.20296e-05
5.19647e-05
5.19503e-05
5.19656e-05
5.19993e-05
5.20443e-05
5.20948e-05
5.21471e-05
5.21996e-05
5.2252e-05
5.23041e-05
5.23566e-05
5.24103e-05
5.24641e-05
5.25162e-05
5.25665e-05
5.26153e-05
5.26621e-05
5.27054e-05
5.27443e-05
5.27791e-05
5.28105e-05
5.28392e-05
5.28655e-05
5.289e-05
5.29128e-05
5.29332e-05
5.29514e-05
5.29671e-05
5.29797e-05
5.29882e-05
5.29913e-05
5.29884e-05
5.29802e-05
5.29676e-05
5.29513e-05
5.2931e-05
5.29067e-05
5.28792e-05
5.28494e-05
5.28175e-05
5.27835e-05
5.27467e-05
5.27069e-05
5.26627e-05
5.26144e-05
5.25634e-05
5.25126e-05
5.24619e-05
5.24118e-05
5.23645e-05
5.23163e-05
5.22853e-05
5.22362e-05
5.21942e-05
5.24025e-05
5.16154e-05
5.06019e-05
4.94806e-05
4.84185e-05
4.7572e-05
4.69083e-05
4.64582e-05
4.60556e-05
4.5767e-05
4.53812e-05
4.50577e-05
4.45572e-05
4.40896e-05
4.3431e-05
4.27199e-05
4.18821e-05
4.08203e-05
3.96909e-05
3.83e-05
3.63703e-05
3.49636e-05
3.17526e-05
2.85308e-05
2.90859e-05
1.64907e-05
7.746e-05
9.01115e-05
8.47937e-05
8.12929e-05
7.95887e-05
7.86971e-05
7.8187e-05
7.78891e-05
7.77205e-05
7.7629e-05
7.75833e-05
7.7566e-05
7.7566e-05
7.75745e-05
7.75855e-05
7.75964e-05
7.76063e-05
7.76146e-05
7.76219e-05
7.76288e-05
7.76341e-05
7.76353e-05
7.76321e-05
7.76251e-05
7.76133e-05
7.75951e-05
7.75691e-05
7.75353e-05
7.74949e-05
7.74483e-05
7.73961e-05
7.73391e-05
7.72769e-05
7.72088e-05
7.71349e-05
7.70552e-05
7.69688e-05
7.68744e-05
7.67702e-05
7.66554e-05
7.65305e-05
7.63966e-05
7.62547e-05
7.6104e-05
7.59443e-05
7.57762e-05
7.56005e-05
7.54176e-05
7.5227e-05
7.50278e-05
7.48191e-05
7.45988e-05
7.43663e-05
7.41226e-05
7.38704e-05
7.36092e-05
7.33375e-05
7.30577e-05
7.27616e-05
7.24703e-05
7.21435e-05
7.17756e-05
7.1787e-05
7.02428e-05
6.83831e-05
6.62939e-05
6.4201e-05
6.23281e-05
6.06829e-05
5.93128e-05
5.80442e-05
5.69134e-05
5.57067e-05
5.45258e-05
5.31739e-05
5.17636e-05
5.01744e-05
4.83967e-05
4.65056e-05
4.42304e-05
4.18997e-05
3.90843e-05
3.59571e-05
3.26356e-05
2.87856e-05
2.3109e-05
2.44294e-05
9.31423e-06
9.37197e-05
0.000115491
0.000110627
0.000106199
0.00010385
0.000102558
0.000101775
0.000101277
0.000100954
0.000100739
0.00010059
0.000100481
0.000100397
0.000100326
0.000100258
0.000100191
0.000100121
0.000100048
9.99719e-05
9.98931e-05
9.98099e-05
9.97194e-05
9.96211e-05
9.95155e-05
9.94018e-05
9.92778e-05
9.91417e-05
9.89933e-05
9.88336e-05
9.86634e-05
9.84832e-05
9.82935e-05
9.80939e-05
9.78836e-05
9.76627e-05
9.74313e-05
9.71883e-05
9.69321e-05
9.66607e-05
9.63727e-05
9.60685e-05
9.57491e-05
9.54155e-05
9.50669e-05
9.47023e-05
9.43219e-05
9.39266e-05
9.35166e-05
9.30912e-05
9.26491e-05
9.21885e-05
9.17068e-05
9.1202e-05
9.06742e-05
9.01252e-05
8.9554e-05
8.89569e-05
8.83356e-05
8.76778e-05
8.70037e-05
8.62768e-05
8.54372e-05
8.51215e-05
8.26379e-05
7.976e-05
7.64941e-05
7.31053e-05
6.98747e-05
6.68771e-05
6.41934e-05
6.16772e-05
5.93316e-05
5.69591e-05
5.45942e-05
5.20827e-05
4.94632e-05
4.66787e-05
4.36599e-05
4.05544e-05
3.70155e-05
3.36072e-05
2.94933e-05
2.58327e-05
2.13347e-05
1.78163e-05
1.25019e-05
1.31775e-05
4.49731e-06
0.000103856
0.000135917
0.0001329
0.000127786
0.000124753
0.000122993
0.000121872
0.00012111
0.000120575
0.000120182
0.000119878
0.00011963
0.000119416
0.000119221
0.000119032
0.000118842
0.00011865
0.000118452
0.000118248
0.000118038
0.00011782
0.000117591
0.000117349
0.000117096
0.00011683
0.000116548
0.000116249
0.000115933
0.000115598
0.000115247
0.00011488
0.000114498
0.000114099
0.000113683
0.00011325
0.0001128
0.000112332
0.000111843
0.000111333
0.000110798
0.000110239
0.000109657
0.000109051
0.000108423
0.000107768
0.000107089
0.000106384
0.000105654
0.000104898
0.000104115
0.000103301
0.000102454
0.000101569
0.000100645
9.96832e-05
9.86812e-05
9.76329e-05
9.65387e-05
9.53829e-05
9.41793e-05
9.29067e-05
9.1427e-05
9.06253e-05
8.69786e-05
8.28913e-05
7.82424e-05
7.33118e-05
6.84133e-05
6.37032e-05
5.93214e-05
5.51892e-05
5.13047e-05
4.75033e-05
4.37885e-05
4.00353e-05
3.62847e-05
3.25055e-05
2.86938e-05
2.50136e-05
2.12175e-05
1.79092e-05
1.43369e-05
1.16407e-05
8.70662e-06
6.78888e-06
4.51161e-06
4.49222e-06
2.21833e-06
0.0001069
0.000150064
0.000150781
0.000145497
0.000141815
0.000139538
0.000138018
0.000136927
0.000136111
0.000135474
0.000134952
0.000134504
0.000134101
0.000133724
0.000133356
0.000132989
0.000132617
0.000132237
0.000131848
0.000131448
0.000131035
0.000130605
0.000130157
0.000129692
0.000129207
0.0001287
0.000128169
0.000127613
0.000127031
0.000126424
0.000125793
0.000125138
0.000124458
0.000123752
0.00012302
0.000122262
0.000121477
0.000120663
0.000119817
0.000118937
0.000118021
0.000117071
0.000116086
0.000115065
0.000114007
0.00011291
0.000111774
0.000110598
0.000109382
0.000108123
0.000106819
0.000105463
0.000104052
0.000102581
0.000101048
9.9452e-05
9.77836e-05
9.604e-05
9.42051e-05
9.22792e-05
9.02678e-05
8.79361e-05
8.64324e-05
8.13284e-05
7.58108e-05
6.96048e-05
6.30006e-05
5.63291e-05
4.9842e-05
4.37837e-05
3.82029e-05
3.31581e-05
2.85549e-05
2.44067e-05
2.06217e-05
1.72363e-05
1.42162e-05
1.15582e-05
9.31468e-06
7.34256e-06
5.82931e-06
4.48411e-06
3.55874e-06
2.7586e-06
2.20436e-06
1.76958e-06
1.70432e-06
1.58734e-06
0.000101893
0.000156175
0.000163097
0.000158633
0.000154516
0.000151736
0.00014978
0.000148301
0.000147131
0.000146173
0.000145355
0.000144628
0.000143959
0.000143323
0.0001427
0.000142078
0.00014145
0.000140809
0.000140154
0.000139483
0.000138792
0.000138077
0.000137336
0.000136569
0.000135774
0.000134948
0.000134089
0.000133194
0.000132262
0.000131295
0.000130291
0.000129252
0.000128176
0.000127062
0.000125909
0.000124718
0.000123487
0.000122214
0.000120897
0.000119531
0.000118115
0.000116648
0.000115129
0.000113559
0.000111934
0.000110251
0.000108509
0.000106709
0.000104848
0.000102924
0.000100933
9.88693e-05
9.67262e-05
9.44972e-05
9.21775e-05
8.97647e-05
8.72496e-05
8.4626e-05
8.18799e-05
7.89965e-05
7.60143e-05
7.26093e-05
7.01445e-05
6.33819e-05
5.64414e-05
4.89784e-05
4.13919e-05
3.40923e-05
2.74399e-05
2.17328e-05
1.70389e-05
1.33251e-05
1.04219e-05
8.18902e-06
6.46095e-06
5.13375e-06
4.11392e-06
3.32907e-06
2.74029e-06
2.28159e-06
1.93177e-06
1.67351e-06
1.47095e-06
1.40124e-06
1.33501e-06
1.39051e-06
1.37239e-06
1.65999e-06
8.80345e-05
0.000151802
0.000167887
0.000165927
0.000161933
0.000158805
0.00015644
0.000154545
0.00015296
0.000151598
0.000150391
0.000149288
0.000148253
0.000147255
0.000146273
0.00014529
0.000144296
0.000143285
0.000142252
0.000141194
0.000140106
0.000138985
0.000137828
0.000136631
0.000135395
0.000134117
0.000132791
0.000131415
0.000129987
0.000128508
0.000126976
0.000125391
0.000123752
0.000122058
0.000120308
0.000118501
0.000116636
0.000114711
0.000112723
0.000110667
0.000108541
0.00010634
0.000104067
0.000101718
9.9292e-05
9.67847e-05
9.41949e-05
9.15222e-05
8.87661e-05
8.5925e-05
8.29963e-05
7.99768e-05
7.68617e-05
7.3646e-05
7.0327e-05
6.69075e-05
6.33876e-05
5.97715e-05
5.60598e-05
5.22518e-05
4.84125e-05
4.42598e-05
4.10397e-05
3.40333e-05
2.76594e-05
2.16822e-05
1.64774e-05
1.22272e-05
8.9557e-06
6.57623e-06
4.90624e-06
3.76188e-06
2.97986e-06
2.44281e-06
2.06754e-06
1.79606e-06
1.59938e-06
1.45486e-06
1.36534e-06
1.32823e-06
1.3165e-06
1.33186e-06
1.35351e-06
1.41162e-06
1.45674e-06
1.60452e-06
1.63054e-06
1.92205e-06
6.54955e-05
0.000133814
0.000162018
0.000165134
0.000162412
0.000159366
0.000156756
0.00015449
0.00015246
0.00015062
0.000148924
0.000147328
0.000145796
0.0001443
0.000142816
0.000141324
0.000139813
0.000138274
0.0001367
0.000135087
0.000133431
0.000131727
0.00012997
0.000128157
0.000126287
0.000124356
0.000122358
0.000120291
0.00011815
0.000115933
0.000113641
0.000111272
0.000108825
0.000106299
0.000103692
0.000101004
9.82354e-05
9.53843e-05
9.24489e-05
8.94262e-05
8.63136e-05
8.31096e-05
7.98161e-05
7.6437e-05
7.29758e-05
6.9437e-05
6.58279e-05
6.21594e-05
5.84455e-05
5.47018e-05
5.09455e-05
4.71954e-05
4.34708e-05
3.97916e-05
3.61797e-05
3.26623e-05
2.92645e-05
2.60155e-05
2.29339e-05
2.0045e-05
1.73794e-05
1.4842e-05
1.29117e-05
9.76554e-06
7.38985e-06
5.53199e-06
4.1656e-06
3.19582e-06
2.52369e-06
2.06541e-06
1.75455e-06
1.54318e-06
1.4044e-06
1.32541e-06
1.29898e-06
1.30041e-06
1.3204e-06
1.35378e-06
1.39718e-06
1.45139e-06
1.50657e-06
1.57675e-06
1.63724e-06
1.72623e-06
1.78769e-06
1.92855e-06
1.98025e-06
2.20723e-06
3.80552e-05
9.94626e-05
0.000140803
0.000152447
0.000153066
0.000151048
0.000148616
0.000146167
0.000143744
0.000141384
0.000139099
0.000136873
0.000134683
0.000132506
0.000130322
0.000128111
0.000125862
0.000123563
0.000121208
0.000118792
0.000116309
0.000113757
0.000111128
0.000108419
0.000105628
0.000102751
9.9785e-05
9.67245e-05
9.35662e-05
9.03093e-05
8.69549e-05
8.35058e-05
7.99666e-05
7.63434e-05
7.26435e-05
6.8877e-05
6.50566e-05
6.11969e-05
5.73146e-05
5.3427e-05
4.95529e-05
4.57131e-05
4.19322e-05
3.82373e-05
3.46557e-05
3.12141e-05
2.79374e-05
2.48485e-05
2.19667e-05
1.93066e-05
1.68773e-05
1.4682e-05
1.27174e-05
1.09756e-05
9.44489e-06
8.11132e-06
6.958e-06
5.96952e-06
5.12674e-06
4.41475e-06
3.81462e-06
3.3015e-06
2.91893e-06
2.40234e-06
2.0342e-06
1.75714e-06
1.55803e-06
1.42094e-06
1.34287e-06
1.31042e-06
1.30531e-06
1.3186e-06
1.3466e-06
1.38586e-06
1.43519e-06
1.49147e-06
1.554e-06
1.62087e-06
1.6898e-06
1.76274e-06
1.83181e-06
1.90961e-06
1.9756e-06
2.06243e-06
2.12165e-06
2.23993e-06
2.30136e-06
2.47588e-06
3.10857e-05
5.54507e-05
9.84423e-05
0.000121575
0.000128845
0.000129704
0.000128378
0.000126214
0.000123615
0.000120777
0.000117833
0.000114832
0.000111786
0.000108693
0.000105545
0.000102332
9.90433e-05
9.56737e-05
9.22193e-05
8.86792e-05
8.50558e-05
8.13526e-05
7.75726e-05
7.37208e-05
6.98066e-05
6.58425e-05
6.18423e-05
5.78205e-05
5.37949e-05
4.9787e-05
4.58224e-05
4.19294e-05
3.8138e-05
3.44792e-05
3.0981e-05
2.76692e-05
2.45657e-05
2.16876e-05
1.90469e-05
1.66486e-05
1.4492e-05
1.25706e-05
1.08742e-05
9.38991e-06
8.10171e-06
6.99228e-06
6.04375e-06
5.23769e-06
4.5562e-06
3.98259e-06
3.50173e-06
3.09979e-06
2.76399e-06
2.48359e-06
2.25e-06
2.05457e-06
1.89051e-06
1.75426e-06
1.64156e-06
1.54818e-06
1.47042e-06
1.40971e-06
1.37248e-06
1.34237e-06
1.33002e-06
1.33228e-06
1.34784e-06
1.37473e-06
1.41139e-06
1.45543e-06
1.50537e-06
1.55922e-06
1.61678e-06
1.67676e-06
1.73988e-06
1.80504e-06
1.87273e-06
1.94193e-06
2.01122e-06
2.08197e-06
2.14839e-06
2.21924e-06
2.2801e-06
2.35385e-06
2.40613e-06
2.50098e-06
2.56396e-06
2.67284e-06
2.14574e-05
2.218e-05
4.30702e-05
6.72216e-05
8.19837e-05
8.82127e-05
8.97492e-05
8.8917e-05
8.67558e-05
8.37682e-05
8.03177e-05
7.65984e-05
7.27102e-05
6.87127e-05
6.46448e-05
6.05346e-05
5.64065e-05
5.22856e-05
4.81999e-05
4.41799e-05
4.02582e-05
3.64674e-05
3.28358e-05
2.93886e-05
2.61478e-05
2.3132e-05
2.03543e-05
1.78213e-05
1.5534e-05
1.34881e-05
1.16757e-05
1.00847e-05
8.70025e-06
7.50634e-06
6.48401e-06
5.61468e-06
4.87959e-06
4.26032e-06
3.74108e-06
3.30665e-06
2.94399e-06
2.64173e-06
2.38917e-06
2.17883e-06
2.00315e-06
1.85606e-06
1.73428e-06
1.63306e-06
1.54808e-06
1.47946e-06
1.4247e-06
1.38113e-06
1.35444e-06
1.33972e-06
1.33259e-06
1.33114e-06
1.33445e-06
1.34216e-06
1.35395e-06
1.36952e-06
1.38835e-06
1.41181e-06
1.43407e-06
1.47246e-06
1.51195e-06
1.55638e-06
1.60467e-06
1.65595e-06
1.70985e-06
1.76542e-06
1.82251e-06
1.88017e-06
1.93874e-06
1.99749e-06
2.05726e-06
2.11741e-06
2.17852e-06
2.23992e-06
2.30076e-06
2.36165e-06
2.41889e-06
2.47762e-06
2.52903e-06
2.58702e-06
2.63051e-06
2.70181e-06
2.75498e-06
2.82564e-06
1.0904e-05
1.1262e-05
1.18845e-05
1.8309e-05
2.61233e-05
3.201e-05
3.51247e-05
3.59502e-05
3.51827e-05
3.336e-05
3.09523e-05
2.82782e-05
2.55337e-05
2.28396e-05
2.02704e-05
1.78708e-05
1.56651e-05
1.3664e-05
1.18708e-05
1.02823e-05
8.89076e-06
7.68385e-06
6.64591e-06
5.75994e-06
5.00765e-06
4.37245e-06
3.83806e-06
3.38965e-06
3.01468e-06
2.70104e-06
2.43952e-06
2.22101e-06
2.0383e-06
1.88649e-06
1.7594e-06
1.65392e-06
1.56735e-06
1.49471e-06
1.43622e-06
1.3901e-06
1.35295e-06
1.33136e-06
1.3198e-06
1.31535e-06
1.31593e-06
1.32059e-06
1.32892e-06
1.34049e-06
1.35489e-06
1.37199e-06
1.39151e-06
1.41316e-06
1.43677e-06
1.46206e-06
1.48876e-06
1.51672e-06
1.54583e-06
1.57601e-06
1.60726e-06
1.63955e-06
1.67266e-06
1.70809e-06
1.7396e-06
1.78735e-06
1.83289e-06
1.881e-06
1.93063e-06
1.98117e-06
2.03248e-06
2.08396e-06
2.13567e-06
2.18698e-06
2.23825e-06
2.28893e-06
2.33972e-06
2.39012e-06
2.44069e-06
2.49087e-06
2.54027e-06
2.58896e-06
2.63485e-06
2.68051e-06
2.72123e-06
2.76448e-06
2.79871e-06
2.85056e-06
2.88941e-06
2.93707e-06
5.31313e-06
5.222e-06
4.73287e-06
4.63521e-06
5.2589e-06
5.95676e-06
6.45545e-06
6.62573e-06
6.4849e-06
6.10848e-06
5.59813e-06
5.04278e-06
4.50256e-06
4.0086e-06
3.57226e-06
3.19522e-06
2.87334e-06
2.599e-06
2.36582e-06
2.16781e-06
2.00008e-06
1.85841e-06
1.73877e-06
1.6388e-06
1.55437e-06
1.48487e-06
1.42747e-06
1.38e-06
1.34375e-06
1.31518e-06
1.29961e-06
1.2927e-06
1.2919e-06
1.29554e-06
1.30278e-06
1.31319e-06
1.3265e-06
1.34229e-06
1.36039e-06
1.38057e-06
1.40254e-06
1.42617e-06
1.45115e-06
1.47725e-06
1.50429e-06
1.53211e-06
1.56063e-06
1.58975e-06
1.6194e-06
1.6495e-06
1.67998e-06
1.71081e-06
1.74192e-06
1.77328e-06
1.80488e-06
1.83668e-06
1.86871e-06
1.90094e-06
1.93341e-06
1.96617e-06
1.99904e-06
2.03342e-06
2.06364e-06
2.10771e-06
2.14884e-06
2.19149e-06
2.23473e-06
2.27805e-06
2.3214e-06
2.36436e-06
2.40701e-06
2.44894e-06
2.49043e-06
2.53109e-06
2.57143e-06
2.61109e-06
2.65053e-06
2.68929e-06
2.72728e-06
2.76425e-06
2.7992e-06
2.83313e-06
2.86386e-06
2.89507e-06
2.92048e-06
2.95772e-06
2.98052e-06
3.01497e-06
3.60511e-06
3.39613e-06
3.08653e-06
2.7918e-06
2.57506e-06
2.4138e-06
2.28545e-06
2.17199e-06
2.06156e-06
1.93614e-06
1.80702e-06
1.68404e-06
1.57437e-06
1.48173e-06
1.4059e-06
1.34547e-06
1.30557e-06
1.27933e-06
1.26406e-06
1.25747e-06
1.25699e-06
1.26111e-06
1.26886e-06
1.27968e-06
1.29306e-06
1.30878e-06
1.32659e-06
1.34625e-06
1.36768e-06
1.39062e-06
1.41497e-06
1.44049e-06
1.46698e-06
1.49426e-06
1.52223e-06
1.55078e-06
1.57982e-06
1.60927e-06
1.63906e-06
1.66912e-06
1.69938e-06
1.72979e-06
1.76029e-06
1.79084e-06
1.8214e-06
1.85194e-06
1.88241e-06
1.9128e-06
1.94308e-06
1.97323e-06
2.00322e-06
2.03306e-06
2.06272e-06
2.09221e-06
2.12154e-06
2.15069e-06
2.17971e-06
2.20858e-06
2.23736e-06
2.26608e-06
2.29462e-06
2.32411e-06
2.34987e-06
2.38658e-06
2.4204e-06
2.4551e-06
2.48988e-06
2.52438e-06
2.55857e-06
2.59219e-06
2.62531e-06
2.65766e-06
2.68946e-06
2.72044e-06
2.75097e-06
2.78078e-06
2.81026e-06
2.83901e-06
2.86712e-06
2.89419e-06
2.91987e-06
2.9443e-06
2.96677e-06
2.98868e-06
3.00678e-06
3.03286e-06
3.05046e-06
3.07561e-06
3.177e-06
2.99567e-06
2.79968e-06
2.60754e-06
2.43053e-06
2.2724e-06
2.13279e-06
2.00934e-06
1.89914e-06
1.7989e-06
1.70752e-06
1.6254e-06
1.55398e-06
1.49501e-06
1.44989e-06
1.41907e-06
1.40214e-06
1.39747e-06
1.40291e-06
1.41615e-06
1.43507e-06
1.45793e-06
1.48342e-06
1.51064e-06
1.53896e-06
1.56803e-06
1.59759e-06
1.62749e-06
1.65763e-06
1.68794e-06
1.71836e-06
1.74884e-06
1.77934e-06
1.80982e-06
1.84023e-06
1.87054e-06
1.90072e-06
1.93073e-06
1.96055e-06
1.99015e-06
2.0195e-06
2.04859e-06
2.07739e-06
2.10588e-06
2.13406e-06
2.16191e-06
2.18942e-06
2.21658e-06
2.24338e-06
2.26982e-06
2.29589e-06
2.3216e-06
2.34695e-06
2.37195e-06
2.39661e-06
2.42093e-06
2.44496e-06
2.46869e-06
2.49216e-06
2.51543e-06
2.53838e-06
2.56192e-06
2.58235e-06
2.61103e-06
2.63721e-06
2.66386e-06
2.69038e-06
2.7165e-06
2.74221e-06
2.76735e-06
2.79198e-06
2.81595e-06
2.8394e-06
2.86216e-06
2.88448e-06
2.90619e-06
2.92757e-06
2.94832e-06
2.96856e-06
2.9879e-06
3.00631e-06
3.02353e-06
3.03958e-06
3.05485e-06
3.06812e-06
3.08669e-06
3.10342e-06
3.12156e-06
3.12006e-06
2.98007e-06
2.84286e-06
2.71331e-06
2.59238e-06
2.48028e-06
2.37692e-06
2.28197e-06
2.19469e-06
2.11397e-06
2.03885e-06
1.96899e-06
1.90499e-06
1.84841e-06
1.8013e-06
1.76547e-06
1.74196e-06
1.73066e-06
1.73046e-06
1.73958e-06
1.75594e-06
1.77754e-06
1.8027e-06
1.83009e-06
1.85878e-06
1.88815e-06
1.9178e-06
1.94748e-06
1.97705e-06
2.00642e-06
2.03555e-06
2.06439e-06
2.09292e-06
2.12113e-06
2.14898e-06
2.17647e-06
2.20357e-06
2.23028e-06
2.25658e-06
2.28245e-06
2.3079e-06
2.33291e-06
2.35748e-06
2.38161e-06
2.40529e-06
2.42852e-06
2.4513e-06
2.47364e-06
2.49553e-06
2.51699e-06
2.53802e-06
2.55862e-06
2.57882e-06
2.59861e-06
2.61803e-06
2.63707e-06
2.65578e-06
2.67416e-06
2.69224e-06
2.71007e-06
2.72756e-06
2.7454e-06
2.76082e-06
2.78224e-06
2.80167e-06
2.82134e-06
2.84081e-06
2.8599e-06
2.8786e-06
2.89682e-06
2.91462e-06
2.93189e-06
2.94874e-06
2.96505e-06
2.981e-06
2.99647e-06
3.01166e-06
3.02636e-06
3.04068e-06
3.05427e-06
3.06728e-06
3.07915e-06
3.09008e-06
3.10302e-06
3.11552e-06
3.1282e-06
3.13979e-06
3.15155e-06
3.13897e-06
3.03987e-06
2.94312e-06
2.85214e-06
2.76708e-06
2.6875e-06
2.61303e-06
2.54341e-06
2.47832e-06
2.41723e-06
2.35949e-06
2.30453e-06
2.25228e-06
2.20357e-06
2.16e-06
2.1236e-06
2.09618e-06
2.07878e-06
2.07145e-06
2.07335e-06
2.08299e-06
2.09865e-06
2.11864e-06
2.1415e-06
2.16612e-06
2.19168e-06
2.21763e-06
2.24362e-06
2.26943e-06
2.29493e-06
2.32006e-06
2.34477e-06
2.36905e-06
2.39287e-06
2.41623e-06
2.43912e-06
2.46154e-06
2.48348e-06
2.50494e-06
2.52593e-06
2.54644e-06
2.56648e-06
2.58605e-06
2.60515e-06
2.6238e-06
2.642e-06
2.65976e-06
2.67707e-06
2.69397e-06
2.71044e-06
2.72652e-06
2.74219e-06
2.75749e-06
2.77243e-06
2.78702e-06
2.80127e-06
2.81522e-06
2.82886e-06
2.84224e-06
2.85539e-06
2.86824e-06
2.88129e-06
2.89252e-06
2.90804e-06
2.92205e-06
2.93619e-06
2.95013e-06
2.96376e-06
2.97706e-06
2.99e-06
3.00261e-06
3.01483e-06
3.02673e-06
3.03823e-06
3.04945e-06
3.06033e-06
3.07098e-06
3.08127e-06
3.09127e-06
3.10071e-06
3.10978e-06
3.11827e-06
3.12755e-06
3.13698e-06
3.14622e-06
3.15528e-06
3.16375e-06
3.1718e-06
3.15987e-06
3.09237e-06
3.02555e-06
2.96211e-06
2.90234e-06
2.84601e-06
2.79284e-06
2.74264e-06
2.69524e-06
2.65044e-06
2.60789e-06
2.56712e-06
2.52782e-06
2.49018e-06
2.4551e-06
2.42406e-06
2.39872e-06
2.38047e-06
2.36999e-06
2.3672e-06
2.37131e-06
2.38111e-06
2.39526e-06
2.41247e-06
2.43164e-06
2.45194e-06
2.47277e-06
2.49372e-06
2.51455e-06
2.53509e-06
2.55526e-06
2.575e-06
2.5943e-06
2.61314e-06
2.63152e-06
2.64944e-06
2.6669e-06
2.6839e-06
2.70046e-06
2.71657e-06
2.73225e-06
2.7475e-06
2.76233e-06
2.77676e-06
2.79078e-06
2.80441e-06
2.81766e-06
2.83053e-06
2.84305e-06
2.85522e-06
2.86705e-06
2.87856e-06
2.88976e-06
2.90066e-06
2.91127e-06
2.92162e-06
2.93171e-06
2.94156e-06
2.95119e-06
2.96063e-06
2.96984e-06
2.97916e-06
2.98716e-06
2.99818e-06
3.00809e-06
3.01808e-06
3.0279e-06
3.03748e-06
3.04682e-06
3.05588e-06
3.0647e-06
3.07325e-06
3.08155e-06
3.08958e-06
3.09739e-06
3.10497e-06
3.11238e-06
3.11952e-06
3.12652e-06
3.13315e-06
3.1405e-06
3.1478e-06
3.15497e-06
3.16171e-06
3.16812e-06
3.1742e-06
3.18015e-06
3.18578e-06
3.17397e-06
3.12828e-06
3.08266e-06
3.03897e-06
2.9975e-06
2.95816e-06
2.92078e-06
2.88525e-06
2.85149e-06
2.81939e-06
2.78878e-06
2.75937e-06
2.73092e-06
2.7034e-06
2.67722e-06
2.65331e-06
2.6329e-06
2.61716e-06
2.60693e-06
2.60245e-06
2.60342e-06
2.6091e-06
2.61854e-06
2.63072e-06
2.64477e-06
2.65993e-06
2.67567e-06
2.69161e-06
2.70748e-06
2.72314e-06
2.73848e-06
2.75347e-06
2.76807e-06
2.78228e-06
2.79609e-06
2.8095e-06
2.82253e-06
2.83517e-06
2.84744e-06
2.85935e-06
2.87089e-06
2.88209e-06
2.89295e-06
2.90348e-06
2.91369e-06
2.92359e-06
2.93319e-06
2.9425e-06
2.95152e-06
2.96028e-06
2.96877e-06
2.97702e-06
2.98502e-06
2.9928e-06
3.00036e-06
3.00771e-06
3.01487e-06
3.02185e-06
3.02866e-06
3.03533e-06
3.04181e-06
3.04837e-06
3.05398e-06
3.06169e-06
3.06863e-06
3.0756e-06
3.08245e-06
3.08912e-06
3.09561e-06
3.10191e-06
3.10803e-06
3.11396e-06
3.11971e-06
3.12528e-06
3.13068e-06
3.13595e-06
3.14105e-06
3.14652e-06
3.15231e-06
3.15791e-06
3.16332e-06
3.16832e-06
3.17307e-06
3.17755e-06
3.18206e-06
3.18652e-06
3.1911e-06
3.19528e-06
3.18332e-06
3.15234e-06
3.12127e-06
3.09136e-06
3.06282e-06
3.03561e-06
3.00964e-06
2.98484e-06
2.96116e-06
2.93856e-06
2.91695e-06
2.89615e-06
2.87597e-06
2.85634e-06
2.83747e-06
2.81995e-06
2.80462e-06
2.79235e-06
2.78385e-06
2.77946e-06
2.77908e-06
2.7823e-06
2.78847e-06
2.79687e-06
2.80681e-06
2.81773e-06
2.82918e-06
2.84083e-06
2.85247e-06
2.86396e-06
2.87522e-06
2.8862e-06
2.89687e-06
2.90724e-06
2.91729e-06
2.92703e-06
2.93647e-06
2.94561e-06
2.95446e-06
2.96303e-06
2.97132e-06
2.97935e-06
2.98712e-06
2.99463e-06
3.00191e-06
3.00896e-06
3.01577e-06
3.02237e-06
3.02877e-06
3.03496e-06
3.04095e-06
3.04677e-06
3.0524e-06
3.05787e-06
3.06318e-06
3.06833e-06
3.07335e-06
3.07823e-06
3.08299e-06
3.08764e-06
3.09216e-06
3.09672e-06
3.10062e-06
3.10598e-06
3.11079e-06
3.11564e-06
3.12038e-06
3.125e-06
3.12949e-06
3.13384e-06
3.13806e-06
3.14215e-06
3.14612e-06
3.14999e-06
3.15364e-06
3.15786e-06
3.16235e-06
3.16677e-06
3.17099e-06
3.17488e-06
3.17848e-06
3.18182e-06
3.18516e-06
3.18846e-06
3.19191e-06
3.19524e-06
3.19865e-06
3.20158e-06
3.18962e-06
3.1686e-06
3.14745e-06
3.12703e-06
3.10746e-06
3.08875e-06
3.07083e-06
3.05366e-06
3.03721e-06
3.02146e-06
3.00637e-06
2.99183e-06
2.97771e-06
2.96394e-06
2.95061e-06
2.9381e-06
2.92698e-06
2.91789e-06
2.91138e-06
2.90773e-06
2.90696e-06
2.90881e-06
2.91286e-06
2.91859e-06
2.92552e-06
2.93322e-06
2.94136e-06
2.94967e-06
2.958e-06
2.96622e-06
2.97428e-06
2.98214e-06
2.98977e-06
2.99717e-06
3.00433e-06
3.01126e-06
3.01797e-06
3.02445e-06
3.03072e-06
3.03678e-06
3.04264e-06
3.0483e-06
3.05377e-06
3.05906e-06
3.06418e-06
3.06912e-06
3.0739e-06
3.07852e-06
3.08299e-06
3.08732e-06
3.09151e-06
3.09556e-06
3.09949e-06
3.10329e-06
3.10699e-06
3.11057e-06
3.11406e-06
3.11744e-06
3.12074e-06
3.12397e-06
3.12709e-06
3.13025e-06
3.13294e-06
3.13664e-06
3.13997e-06
3.14332e-06
3.1466e-06
3.14978e-06
3.15287e-06
3.15587e-06
3.15879e-06
3.16158e-06
3.16464e-06
3.16779e-06
3.17099e-06
3.17425e-06
3.17755e-06
3.18075e-06
3.18376e-06
3.18647e-06
3.18898e-06
3.19133e-06
3.19375e-06
3.19614e-06
3.19867e-06
3.20104e-06
3.20351e-06
3.20554e-06
3.19389e-06
3.17961e-06
3.16523e-06
3.1513e-06
3.13792e-06
3.12509e-06
3.11278e-06
3.10095e-06
3.08959e-06
3.07869e-06
3.06822e-06
3.05813e-06
3.04831e-06
3.03873e-06
3.02944e-06
3.02066e-06
3.01277e-06
3.00624e-06
3.00146e-06
2.99867e-06
2.9979e-06
2.999e-06
3.00169e-06
3.0056e-06
3.01039e-06
3.01577e-06
3.02147e-06
3.02731e-06
3.03318e-06
3.03897e-06
3.04465e-06
3.05019e-06
3.05556e-06
3.06076e-06
3.0658e-06
3.07066e-06
3.07536e-06
3.07991e-06
3.08429e-06
3.08853e-06
3.09262e-06
3.09657e-06
3.10039e-06
3.10407e-06
3.10763e-06
3.11107e-06
3.1144e-06
3.11761e-06
3.12071e-06
3.12371e-06
3.12661e-06
3.12942e-06
3.13214e-06
3.13477e-06
3.13732e-06
3.1398e-06
3.1422e-06
3.14454e-06
3.14682e-06
3.14904e-06
3.15119e-06
3.15336e-06
3.15521e-06
3.15777e-06
3.16006e-06
3.16238e-06
3.16465e-06
3.16685e-06
3.16898e-06
3.17133e-06
3.17373e-06
3.17611e-06
3.17843e-06
3.18068e-06
3.18299e-06
3.18543e-06
3.18796e-06
3.19044e-06
3.19273e-06
3.19473e-06
3.19652e-06
3.19817e-06
3.19985e-06
3.20151e-06
3.2033e-06
3.20494e-06
3.2067e-06
3.20808e-06
3.19678e-06
3.18708e-06
3.17729e-06
3.1678e-06
3.15867e-06
3.1499e-06
3.14146e-06
3.13334e-06
3.12552e-06
3.11801e-06
3.11077e-06
3.10379e-06
3.097e-06
3.09036e-06
3.08392e-06
3.07781e-06
3.07231e-06
3.06771e-06
3.06431e-06
3.06228e-06
3.06165e-06
3.06234e-06
3.06414e-06
3.06682e-06
3.07013e-06
3.07386e-06
3.07782e-06
3.08189e-06
3.08598e-06
3.09003e-06
3.09399e-06
3.09785e-06
3.10159e-06
3.10521e-06
3.10872e-06