/*--------------------------------*- C++ -*----------------------------------*\
| =========                 |                                                 |
| \\      /  F ield         | OpenFOAM: The Open Source CFD Toolbox           |
|  \\    /   O peration     | Version:  5.x                                   |
|   \\  /    A nd           | Web:      www.OpenFOAM.org                      |
|    \\/     M anipulation  |                                                 |
\*---------------------------------------------------------------------------*/
FoamFile
{
    version     2.0;
    format      ascii;
    class       surfaceScalarField;
    location    "0";
    object      phi;
}
// * * * * * * * * * * * * * * * * * * * * * * * * * * * * * * * * * * * * * //

dimensions      [0 3 -1 0 0 0 0];

internalField   nonuniform List<scalar> 
258787
(
-7.98239e-13
3.77363e-05
-4.61244e-12
4.151e-05
-8.79428e-12
4.5661e-05
-1.33697e-11
5.0227e-05
-1.83689e-11
5.52498e-05
-2.38117e-11
6.07747e-05
-2.97327e-11
6.68522e-05
-3.61506e-11
7.35374e-05
-4.30849e-11
8.08912e-05
-5.05495e-11
8.89803e-05
-5.85554e-11
9.78783e-05
-6.71021e-11
0.000107666
-7.61817e-11
0.000118433
-8.5777e-11
0.000130276
-9.58599e-11
0.000143304
-1.06382e-10
0.000157634
-1.17282e-10
0.000173397
-1.28474e-10
0.000190737
-1.39843e-10
0.000209811
-1.51252e-10
0.000230792
-1.6252e-10
0.000253871
-1.73453e-10
0.000279258
-1.83801e-10
0.000307184
-1.93328e-10
0.000337902
-2.01707e-10
0.000371693
-2.08701e-10
0.000408862
-2.13908e-10
0.000449748
-2.17137e-10
0.000494723
-2.17925e-10
0.000544195
-2.16158e-10
0.000598615
-2.11365e-10
0.000658476
-2.03406e-10
0.000724324
-1.91976e-10
0.000796756
-1.76842e-10
0.000876432
-1.57634e-10
0.000964075
-1.3415e-10
0.00106048
-1.06072e-10
0.00116653
-7.33047e-11
0.00128318
-3.59109e-11
0.0014115
1.4323e-12
0.0014115
3.42506e-11
0.00128318
6.28251e-11
0.00116653
8.74646e-11
0.00106048
1.08405e-10
0.000964075
1.25843e-10
0.000876432
1.39923e-10
0.000796756
1.50845e-10
0.000724324
1.58794e-10
0.000658476
1.64051e-10
0.000598615
1.66808e-10
0.000544195
1.67364e-10
0.000494723
1.6589e-10
0.000449748
1.62692e-10
0.000408862
1.57929e-10
0.000371693
1.51907e-10
0.000337902
1.44795e-10
0.000307184
1.36886e-10
0.000279258
1.28349e-10
0.000253871
1.19441e-10
0.000230792
1.10312e-10
0.000209811
1.01162e-10
0.000190737
9.21067e-11
0.000173397
8.32805e-11
0.000157634
7.47626e-11
0.000143304
6.66289e-11
0.000130276
5.89188e-11
0.000118433
5.16616e-11
0.000107666
4.48699e-11
9.78783e-05
3.8549e-11
8.89803e-05
3.26838e-11
8.08912e-05
2.72718e-11
7.35374e-05
2.22826e-11
6.68522e-05
1.76985e-11
6.07747e-05
1.3494e-11
5.52497e-05
9.64786e-12
5.0227e-05
6.13198e-12
4.5661e-05
2.92388e-12
4.15099e-05
3.77363e-05
-1.18549e-12
3.77363e-05
-5.48184e-12
4.151e-05
-1.01608e-11
4.5661e-05
-1.525e-11
5.0227e-05
-2.07718e-11
5.52497e-05
-2.67335e-11
6.07747e-05
-3.31579e-11
6.68522e-05
-4.00524e-11
7.35374e-05
-4.74255e-11
8.08912e-05
-5.52789e-11
8.89803e-05
-6.36135e-11
9.78783e-05
-7.24279e-11
0.000107666
-8.17111e-11
0.000118433
-9.14467e-11
0.000130276
-1.01605e-10
0.000143304
-1.12143e-10
0.000157634
-1.22998e-10
0.000173397
-1.34083e-10
0.000190737
-1.45285e-10
0.000209811
-1.56465e-10
0.000230792
-1.67445e-10
0.000253871
-1.78042e-10
0.000279258
-1.88002e-10
0.000307184
-1.9712e-10
0.000337902
-2.05058e-10
0.000371693
-2.11626e-10
0.000408862
-2.16393e-10
0.000449748
-2.19226e-10
0.000494723
-2.19628e-10
0.000544195
-2.17533e-10
0.000598615
-2.12453e-10
0.000658476
-2.04224e-10
0.000724324
-1.92612e-10
0.000796756
-1.77363e-10
0.000876432
-1.58018e-10
0.000964075
-1.3439e-10
0.00106048
-1.06219e-10
0.00116653
-7.33696e-11
0.00128318
-3.58698e-11
0.0014115
1.5594e-12
0.0014115
3.4431e-11
0.00128318
6.30764e-11
0.00116653
8.78025e-11
0.00106048
1.08839e-10
0.000964075
1.26395e-10
0.000876432
1.40607e-10
0.000796756
1.51701e-10
0.000724324
1.59857e-10
0.000658476
1.65368e-10
0.000598615
1.68422e-10
0.000544195
1.69313e-10
0.000494723
1.68198e-10
0.000449748
1.65376e-10
0.000408862
1.60988e-10
0.000371693
1.55337e-10
0.000337902
1.48568e-10
0.000307184
1.40971e-10
0.000279258
1.32693e-10
0.000253871
1.23985e-10
0.000230792
1.14987e-10
0.000209811
1.05889e-10
0.000190737
9.68057e-11
0.000173397
8.78706e-11
0.000157634
7.91593e-11
0.000143304
7.07563e-11
0.000130276
6.27054e-11
0.000118433
5.50484e-11
0.000107666
4.78079e-11
9.78783e-05
4.09931e-11
8.89803e-05
3.46049e-11
8.08912e-05
2.86413e-11
7.35374e-05
2.30853e-11
6.68522e-05
1.79322e-11
6.07747e-05
1.31574e-11
5.52497e-05
8.74137e-12
5.0227e-05
4.66547e-12
4.5661e-05
9.0884e-13
4.15099e-05
3.77363e-05
-1.44595e-12
3.77363e-05
-6.02261e-12
4.151e-05
-1.09993e-11
4.56609e-05
-1.63932e-11
5.0227e-05
-2.22199e-11
5.52497e-05
-2.84922e-11
6.07747e-05
-3.52172e-11
6.68522e-05
-4.24028e-11
7.35374e-05
-5.00481e-11
8.08912e-05
-5.81592e-11
8.89803e-05
-6.67351e-11
9.78783e-05
-7.57683e-11
0.000107666
-8.52495e-11
0.000118433
-9.51641e-11
0.000130276
-1.05473e-10
0.000143304
-1.16131e-10
0.000157634
-1.27065e-10
0.000173397
-1.38184e-10
0.000190737
-1.49361e-10
0.000209811
-1.60462e-10
0.000230792
-1.71297e-10
0.000253871
-1.81698e-10
0.000279258
-1.914e-10
0.000307184
-2.0023e-10
0.000337902
-2.07831e-10
0.000371693
-2.14062e-10
0.000408862
-2.18467e-10
0.000449748
-2.20963e-10
0.000494723
-2.21038e-10
0.000544195
-2.18613e-10
0.000598615
-2.13272e-10
0.000658476
-2.04851e-10
0.000724324
-1.93065e-10
0.000796756
-1.77704e-10
0.000876432
-1.58271e-10
0.000964075
-1.34564e-10
0.00106048
-1.06328e-10
0.00116653
-7.34184e-11
0.00128318
-3.58605e-11
0.0014115
1.62135e-12
0.0014115
3.4544e-11
0.00128318
6.32429e-11
0.00116653
8.8026e-11
0.00106048
1.09114e-10
0.000964075
1.26724e-10
0.000876432
1.41024e-10
0.000796756
1.52249e-10
0.000724324
1.6059e-10
0.000658476
1.66333e-10
0.000598615
1.69639e-10
0.000544195
1.70805e-10
0.000494723
1.69957e-10
0.000449748
1.67394e-10
0.000408862
1.63228e-10
0.000371693
1.5776e-10
0.000337902
1.51111e-10
0.000307184
1.43577e-10
0.000279258
1.35293e-10
0.000253871
1.26524e-10
0.000230792
1.17408e-10
0.000209811
1.08155e-10
0.000190737
9.8889e-11
0.000173397
8.97549e-11
0.000157634
8.08401e-11
0.000143304
7.22347e-11
0.000130276
6.3996e-11
0.000118433
5.61613e-11
0.000107666
4.8761e-11
9.78783e-05
4.18053e-11
8.89803e-05
3.52918e-11
8.08912e-05
2.92222e-11
7.35374e-05
2.35811e-11
6.68522e-05
1.83549e-11
6.07747e-05
1.35253e-11
5.52497e-05
9.06212e-12
5.0227e-05
4.95248e-12
4.5661e-05
1.17529e-12
4.15099e-05
3.77363e-05
-1.5703e-12
3.77363e-05
-6.29541e-12
4.151e-05
-1.1438e-11
4.56609e-05
-1.70024e-11
5.0227e-05
-2.30151e-11
5.52497e-05
-2.94842e-11
6.07747e-05
-3.64158e-11
6.68522e-05
-4.38126e-11
7.35374e-05
-5.16751e-11
8.08912e-05
-6.00018e-11
8.89803e-05
-6.87885e-11
9.78783e-05
-7.80291e-11
0.000107666
-8.77058e-11
0.000118433
-9.77971e-11
0.000130276
-1.08263e-10
0.000143304
-1.1905e-10
0.000157634
-1.30082e-10
0.000173397
-1.41265e-10
0.000190737
-1.52467e-10
0.000209811
-1.6355e-10
0.000230792
-1.74325e-10
0.000253871
-1.84623e-10
0.000279258
-1.94182e-10
0.000307184
-2.02829e-10
0.000337902
-2.10218e-10
0.000371693
-2.16202e-10
0.000408862
-2.2035e-10
0.000449748
-2.22568e-10
0.000494723
-2.22373e-10
0.000544195
-2.19674e-10
0.000598615
-2.1409e-10
0.000658476
-2.05479e-10
0.000724324
-1.93555e-10
0.000796756
-1.78075e-10
0.000876432
-1.58558e-10
0.000964075
-1.34776e-10
0.00106048
-1.06469e-10
0.00116653
-7.34926e-11
0.00128318
-3.58663e-11
0.0014115
1.68038e-12
0.0014115
3.46592e-11
0.00128318
6.34029e-11
0.00116653
8.82238e-11
0.00106048
1.09345e-10
0.000964075
1.26995e-10
0.000876432
1.41371e-10
0.000796756
1.52716e-10
0.000724324
1.61225e-10
0.000658476
1.67156e-10
0.000598615
1.70675e-10
0.000544195
1.72054e-10
0.000494723
1.71422e-10
0.000449748
1.69066e-10
0.000408862
1.65092e-10
0.000371693
1.59797e-10
0.000337902
1.53299e-10
0.000307184
1.45893e-10
0.000279258
1.3771e-10
0.000253871
1.29015e-10
0.000230792
1.1994e-10
0.000209811
1.10697e-10
0.000190737
1.01403e-10
0.000173397
9.22048e-11
0.000157634
8.31928e-11
0.000143304
7.44599e-11
0.000130276
6.60614e-11
0.000118433
5.805e-11
0.000107666
5.04521e-11
9.78783e-05
4.32893e-11
8.89803e-05
3.6569e-11
8.08912e-05
3.0286e-11
7.35374e-05
2.44371e-11
6.68522e-05
1.90054e-11
6.07747e-05
1.39727e-11
5.52497e-05
9.32047e-12
5.0227e-05
5.03318e-12
4.5661e-05
1.09049e-12
4.15099e-05
3.77363e-05
-1.63135e-12
3.77363e-05
-6.44107e-12
4.15099e-05
-1.16663e-11
4.56609e-05
-1.73301e-11
5.0227e-05
-2.34535e-11
5.52497e-05
-3.0038e-11
6.07747e-05
-3.7093e-11
6.68522e-05
-4.46224e-11
7.35374e-05
-5.2627e-11
8.08911e-05
-6.11026e-11
8.89803e-05
-7.00449e-11
9.78783e-05
-7.94427e-11
0.000107666
-8.9276e-11
0.000118433
-9.95211e-11
0.000130276
-1.10136e-10
0.000143304
-1.2106e-10
0.000157634
-1.32216e-10
0.000173397
-1.43499e-10
0.000190737
-1.54777e-10
0.000209811
-1.65905e-10
0.000230792
-1.76692e-10
0.000253871
-1.86965e-10
0.000279258
-1.96464e-10
0.000307184
-2.05014e-10
0.000337902
-2.12272e-10
0.000371693
-2.18091e-10
0.000408862
-2.22049e-10
0.000449748
-2.2404e-10
0.000494723
-2.23622e-10
0.000544195
-2.2069e-10
0.000598615
-2.14905e-10
0.000658476
-2.06133e-10
0.000724324
-1.94071e-10
0.000796756
-1.78485e-10
0.000876432
-1.58876e-10
0.000964075
-1.35017e-10
0.00106048
-1.06638e-10
0.00116653
-7.3588e-11
0.00128318
-3.58859e-11
0.0014115
1.73188e-12
0.0014115
3.47667e-11
0.00128318
6.35488e-11
0.00116653
8.83957e-11
0.00106048
1.09547e-10
0.000964075
1.27234e-10
0.000876432
1.41686e-10
0.000796756
1.53138e-10
0.000724324
1.61784e-10
0.000658476
1.6786e-10
0.000598615
1.71531e-10
0.000544195
1.7305e-10
0.000494723
1.7254e-10
0.000449748
1.70273e-10
0.000408862
1.6635e-10
0.000371693
1.61061e-10
0.000337902
1.54521e-10
0.000307184
1.47027e-10
0.000279258
1.38717e-10
0.000253871
1.29863e-10
0.000230792
1.20616e-10
0.000209811
1.11193e-10
0.000190737
1.01725e-10
0.000173397
9.23713e-11
0.000157634
8.32269e-11
0.000143304
7.43884e-11
0.000130276
6.5917e-11
0.000118433
5.78591e-11
0.000107666
5.02412e-11
9.78783e-05
4.30818e-11
8.89803e-05
3.63804e-11
8.08912e-05
3.01368e-11
7.35374e-05
2.43343e-11
6.68522e-05
1.89589e-11
6.07747e-05
1.39906e-11
5.52497e-05
9.40844e-12
5.0227e-05
5.18417e-12
4.5661e-05
1.3074e-12
4.15099e-05
3.77363e-05
-1.68109e-12
3.77363e-05
-6.54436e-12
4.15099e-05
-1.18376e-11
4.56609e-05
-1.75744e-11
5.0227e-05
-2.37659e-11
5.52497e-05
-3.0431e-11
6.07747e-05
-3.75711e-11
6.68522e-05
-4.51934e-11
7.35374e-05
-5.32946e-11
8.08911e-05
-6.18732e-11
8.89803e-05
-7.0925e-11
9.78783e-05
-8.04339e-11
0.000107666
-9.03836e-11
0.000118433
-1.00746e-10
0.000130276
-1.11479e-10
0.000143304
-1.22518e-10
0.000157634
-1.33781e-10
0.000173397
-1.45159e-10
0.000190737
-1.56522e-10
0.000209811
-1.67715e-10
0.000230792
-1.78545e-10
0.000253871
-1.88835e-10
0.000279258
-1.98322e-10
0.000307184
-2.0683e-10
0.000337902
-2.14015e-10
0.000371693
-2.19731e-10
0.000408862
-2.23557e-10
0.000449748
-2.25394e-10
0.000494723
-2.24788e-10
0.000544195
-2.21671e-10
0.000598615
-2.15714e-10
0.000658476
-2.0679e-10
0.000724324
-1.94608e-10
0.000796756
-1.78913e-10
0.000876432
-1.59217e-10
0.000964075
-1.3528e-10
0.00106048
-1.06826e-10
0.00116653
-7.37019e-11
0.00128318
-3.59215e-11
0.0014115
1.76833e-12
0.0014115
3.48567e-11
0.00128318
6.36739e-11
0.00116653
8.85427e-11
0.00106048
1.09719e-10
0.000964075
1.27452e-10
0.000876432
1.41973e-10
0.000796756
1.53518e-10
0.000724324
1.62272e-10
0.000658476
1.68464e-10
0.000598615
1.72247e-10
0.000544195
1.7387e-10
0.000494723
1.73452e-10
0.000449748
1.71267e-10
0.000408862
1.67415e-10
0.000371693
1.6219e-10
0.000337902
1.55711e-10
0.000307184
1.48276e-10
0.000279258
1.40024e-10
0.000253871
1.31227e-10
0.000230792
1.22027e-10
0.000209811
1.12641e-10
0.000190737
1.03192e-10
0.000173397
9.38368e-11
0.000157634
8.4664e-11
0.000143304
7.57754e-11
0.000130276
6.72276e-11
0.000118433
5.90745e-11
0.000107666
5.13447e-11
9.78783e-05
4.40559e-11
8.89803e-05
3.72147e-11
8.08912e-05
3.08246e-11
7.35374e-05
2.48756e-11
6.68522e-05
1.93507e-11
6.07747e-05
1.4241e-11
5.52497e-05
9.51857e-12
5.0227e-05
5.16538e-12
4.5661e-05
1.15818e-12
4.15099e-05
3.77363e-05
-1.71175e-12
3.77363e-05
-6.62098e-12
4.15099e-05
-1.19585e-11
4.56609e-05
-1.77476e-11
5.0227e-05
-2.39915e-11
5.52497e-05
-3.07161e-11
6.07747e-05
-3.79212e-11
6.68522e-05
-4.56113e-11
7.35374e-05
-5.37881e-11
8.08911e-05
-6.24465e-11
8.89803e-05
-7.15801e-11
9.78783e-05
-8.11738e-11
0.000107666
-9.12141e-11
0.000118433
-1.0167e-10
0.000130276
-1.12496e-10
0.000143304
-1.23627e-10
0.000157634
-1.3498e-10
0.000173397
-1.46445e-10
0.000190737
-1.57884e-10
0.000209811
-1.69144e-10
0.000230792
-1.80027e-10
0.000253871
-1.90353e-10
0.000279258
-1.99855e-10
0.000307184
-2.08355e-10
0.000337902
-2.15506e-10
0.000371693
-2.21162e-10
0.000408862
-2.24901e-10
0.000449748
-2.2662e-10
0.000494723
-2.25882e-10
0.000544195
-2.2261e-10
0.000598615
-2.1651e-10
0.000658476
-2.07458e-10
0.000724324
-1.95154e-10
0.000796756
-1.79361e-10
0.000876432
-1.59575e-10
0.000964075
-1.3556e-10
0.00106048
-1.07031e-10
0.00116653
-7.38322e-11
0.00128318
-3.59745e-11
0.0014115
1.78491e-12
0.0014115
3.4925e-11
0.00128318
6.37779e-11
0.00116653
8.86729e-11
0.00106048
1.0988e-10
0.000964075
1.27658e-10
0.000876432
1.42243e-10
0.000796756
1.53863e-10
0.000724324
1.62699e-10
0.000658476
1.68968e-10
0.000598615
1.7282e-10
0.000544195
1.74496e-10
0.000494723
1.7411e-10
0.000449748
1.7193e-10
0.000408862
1.68054e-10
0.000371693
1.62772e-10
0.000337902
1.56206e-10
0.000307184
1.48656e-10
0.000279258
1.40269e-10
0.000253871
1.31322e-10
0.000230792
1.21969e-10
0.000209811
1.12435e-10
0.000190737
1.02854e-10
0.000173397
9.33894e-11
0.000157634
8.41354e-11
0.000143304
7.51958e-11
0.000130276
6.66257e-11
0.000118433
5.84781e-11
0.000107666
5.07776e-11
9.78783e-05
4.35428e-11
8.89803e-05
3.67726e-11
8.08912e-05
3.04621e-11
7.35374e-05
2.46024e-11
6.68522e-05
1.91741e-11
6.07747e-05
1.41531e-11
5.52497e-05
9.52398e-12
5.0227e-05
5.26436e-12
4.5661e-05
1.34891e-12
4.15099e-05
3.77363e-05
-1.73616e-12
3.77363e-05
-6.67302e-12
4.15099e-05
-1.20481e-11
4.56609e-05
-1.7871e-11
5.0227e-05
-2.41623e-11
5.52497e-05
-3.09278e-11
6.07747e-05
-3.81819e-11
6.68522e-05
-4.59236e-11
7.35374e-05
-5.41536e-11
8.08911e-05
-6.28728e-11
8.89803e-05
-7.20659e-11
9.78783e-05
-8.17307e-11
0.000107666
-9.18424e-11
0.000118433
-1.02372e-10
0.000130276
-1.13275e-10
0.000143304
-1.24486e-10
0.000157634
-1.35916e-10
0.000173397
-1.47456e-10
0.000190737
-1.58967e-10
0.000209811
-1.70293e-10
0.000230792
-1.81231e-10
0.000253871
-1.91601e-10
0.000279258
-2.01131e-10
0.000307184
-2.09643e-10
0.000337902
-2.16784e-10
0.000371693
-2.2241e-10
0.000408862
-2.26095e-10
0.000449748
-2.27743e-10
0.000494723
-2.26901e-10
0.000544195
-2.23517e-10
0.000598615
-2.17295e-10
0.000658476
-2.0812e-10
0.000724324
-1.95712e-10
0.000796756
-1.79818e-10
0.000876432
-1.59949e-10
0.000964075
-1.35855e-10
0.00106048
-1.07252e-10
0.00116653
-7.3978e-11
0.00128318
-3.6044e-11
0.0014115
1.78371e-12
0.0014115
3.49753e-11
0.00128318
6.38658e-11
0.00116653
8.87913e-11
0.00106048
1.10032e-10
0.000964075
1.27854e-10
0.000876432
1.42491e-10
0.000796756
1.54173e-10
0.000724324
1.63068e-10
0.000658476
1.69395e-10
0.000598615
1.73294e-10
0.000544195
1.75009e-10
0.000494723
1.74653e-10
0.000449748
1.72501e-10
0.000408862
1.68652e-10
0.000371693
1.63405e-10
0.000337902
1.56882e-10
0.000307184
1.49388e-10
0.000279258
1.41065e-10
0.000253871
1.32192e-10
0.000230792
1.22911e-10
0.000209811
1.13444e-10
0.000190737
1.03914e-10
0.000173397
9.44816e-11
0.000157634
8.52372e-11
0.000143304
7.62816e-11
0.000130276
6.76709e-11
0.000118433
5.94582e-11
0.000107666
5.16751e-11
9.78783e-05
4.43391e-11
8.89803e-05
3.74574e-11
8.08911e-05
3.10303e-11
7.35374e-05
2.50457e-11
6.68522e-05
1.94903e-11
6.07747e-05
1.4345e-11
5.52497e-05
9.59688e-12
5.0227e-05
5.21486e-12
4.5661e-05
1.18997e-12
4.15099e-05
3.77363e-05
-1.75392e-12
3.77363e-05
-6.71996e-12
4.15099e-05
-1.2121e-11
4.56609e-05
-1.79733e-11
5.0227e-05
-2.42942e-11
5.52497e-05
-3.10944e-11
6.07747e-05
-3.83862e-11
6.68522e-05
-4.61722e-11
7.35374e-05
-5.44501e-11
8.08911e-05
-6.32165e-11
8.89803e-05
-7.24656e-11
9.78783e-05
-8.21879e-11
0.000107666
-9.23597e-11
0.000118433
-1.0295e-10
0.000130276
-1.13915e-10
0.000143304
-1.25189e-10
0.000157634
-1.36685e-10
0.000173397
-1.4829e-10
0.000190737
-1.59864e-10
0.000209811
-1.71249e-10
0.000230792
-1.8224e-10
0.000253871
-1.92655e-10
0.000279258
-2.0222e-10
0.000307184
-2.10753e-10
0.000337902
-2.17901e-10
0.000371693
-2.23515e-10
0.000408862
-2.27169e-10
0.000449748
-2.28761e-10
0.000494723
-2.27853e-10
0.000544195
-2.24377e-10
0.000598615
-2.18057e-10
0.000658476
-2.08787e-10
0.000724324
-1.96274e-10
0.000796756
-1.80293e-10
0.000876432
-1.60336e-10
0.000964075
-1.36164e-10
0.00106048
-1.07486e-10
0.00116653
-7.41377e-11
0.00128318
-3.61284e-11
0.0014115
1.76625e-12
0.0014115
3.50097e-11
0.00128318
6.39409e-11
0.00116653
8.8901e-11
0.00106048
1.10178e-10
0.000964075
1.28042e-10
0.000876432
1.42727e-10
0.000796756
1.54452e-10
0.000724324
1.63391e-10
0.000658476
1.69749e-10
0.000598615
1.7367e-10
0.000544195
1.75392e-10
0.000494723
1.75028e-10
0.000449748
1.72848e-10
0.000408862
1.68951e-10
0.000371693
1.63634e-10
0.000337902
1.5702e-10
0.000307184
1.49413e-10
0.000279258
1.40966e-10
0.000253871
1.31957e-10
0.000230792
1.22542e-10
0.000209811
1.12949e-10
0.000190737
1.03312e-10
0.000173397
9.37928e-11
0.000157634
8.44918e-11
0.000143304
7.55072e-11
0.000130276
6.68971e-11
0.000118433
5.87126e-11
0.000107666
5.09806e-11
9.78783e-05
4.37158e-11
8.89803e-05
3.69195e-11
8.08911e-05
3.05853e-11
7.35374e-05
2.47029e-11
6.68522e-05
1.9253e-11
6.07747e-05
1.42181e-11
5.52497e-05
9.57634e-12
5.0227e-05
5.307e-12
4.5661e-05
1.3749e-12
4.15099e-05
3.77363e-05
-1.76813e-12
3.77363e-05
-6.75726e-12
4.15099e-05
-1.21832e-11
4.56609e-05
-1.80619e-11
5.0227e-05
-2.44065e-11
5.52497e-05
-3.12401e-11
6.07747e-05
-3.85651e-11
6.68522e-05
-4.63863e-11
7.35374e-05
-5.47029e-11
8.08911e-05
-6.35087e-11
8.89802e-05
-7.28018e-11
9.78783e-05
-8.25691e-11
0.000107666
-9.27897e-11
0.000118433
-1.03433e-10
0.000130276
-1.14456e-10
0.000143304
-1.25786e-10
0.000157634
-1.37339e-10
0.000173397
-1.49002e-10
0.000190737
-1.60632e-10
0.000209811
-1.7207e-10
0.000230792
-1.83111e-10
0.000253871
-1.9357e-10
0.000279258
-2.03169e-10
0.000307184
-2.11728e-10
0.000337902
-2.18889e-10
0.000371693
-2.24504e-10
0.000408862
-2.2814e-10
0.000449748
-2.29707e-10
0.000494723
-2.28743e-10
0.000544195
-2.25204e-10
0.000598615
-2.18802e-10
0.000658476
-2.09438e-10
0.000724324
-1.96843e-10
0.000796756
-1.80771e-10
0.000876432
-1.60736e-10
0.000964075
-1.36487e-10
0.00106048
-1.07734e-10
0.00116653
-7.43108e-11
0.00128318
-3.62256e-11
0.0014115
1.73693e-12
0.0014115
3.50338e-11
0.00128318
6.40074e-11
0.00116653
8.90049e-11
0.00106048
1.10318e-10
0.000964075
1.2822e-10
0.000876432
1.42941e-10
0.000796756
1.54705e-10
0.000724324
1.63672e-10
0.000658476
1.70056e-10
0.000598615
1.73993e-10
0.000544195
1.75726e-10
0.000494723
1.75371e-10
0.000449748
1.73202e-10
0.000408862
1.69323e-10
0.000371693
1.64037e-10
0.000337902
1.5747e-10
0.000307184
1.49928e-10
0.000279258
1.41556e-10
0.000253871
1.32633e-10
0.000230792
1.23305e-10
0.000209811
1.13793e-10
0.000190737
1.04224e-10
0.000173397
9.4754e-11
0.000157634
8.54763e-11
0.000143304
7.6488e-11
0.000130276
6.78507e-11
0.000118433
5.96154e-11
0.000107666
5.18074e-11
9.78783e-05
4.44532e-11
8.89802e-05
3.75569e-11
8.08911e-05
3.11129e-11
7.35374e-05
2.51132e-11
6.68522e-05
1.95427e-11
6.07747e-05
1.43903e-11
5.52497e-05
9.62878e-12
5.0227e-05
5.24634e-12
4.5661e-05
1.20503e-12
4.15099e-05
3.77363e-05
-1.78412e-12
3.77363e-05
-6.78848e-12
4.15099e-05
-1.22302e-11
4.56609e-05
-1.81295e-11
5.0227e-05
-2.45005e-11
5.52497e-05
-3.13651e-11
6.07747e-05
-3.8719e-11
6.68522e-05
-4.65705e-11
7.35374e-05
-5.4923e-11
8.08911e-05
-6.37653e-11
8.89802e-05
-7.30988e-11
9.78783e-05
-8.29061e-11
0.000107666
-9.31712e-11
0.000118433
-1.0386e-10
0.000130276
-1.14929e-10
0.000143304
-1.26308e-10
0.000157634
-1.37913e-10
0.000173397
-1.49626e-10
0.000190737
-1.61306e-10
0.000209811
-1.72794e-10
0.000230792
-1.83881e-10
0.000253871
-1.94382e-10
0.000279258
-2.04017e-10
0.000307184
-2.12605e-10
0.000337902
-2.19784e-10
0.000371693
-2.25407e-10
0.000408862
-2.29037e-10
0.000449748
-2.30576e-10
0.000494723
-2.2958e-10
0.000544195
-2.25987e-10
0.000598615
-2.19521e-10
0.000658476
-2.1009e-10
0.000724324
-1.97409e-10
0.000796756
-1.81262e-10
0.000876432
-1.61146e-10
0.000964075
-1.36821e-10
0.00106048
-1.07993e-10
0.00116653
-7.44948e-11
0.00128318
-3.63339e-11
0.0014115
1.69683e-12
0.0014115
3.50484e-11
0.00128318
6.40671e-11
0.00116653
8.91037e-11
0.00106048
1.10455e-10
0.000964075
1.28391e-10
0.000876432
1.43148e-10
0.000796756
1.54936e-10
0.000724324
1.63927e-10
0.000658476
1.7032e-10
0.000598615
1.7426e-10
0.000544195
1.75984e-10
0.000494723
1.75609e-10
0.000449748
1.73405e-10
0.000408862
1.69476e-10
0.000371693
1.64121e-10
0.000337902
1.57467e-10
0.000307184
1.4982e-10
0.000279258
1.41332e-10
0.000253871
1.32283e-10
0.000230792
1.2283e-10
0.000209811
1.13202e-10
0.000190737
1.03534e-10
0.000173397
9.39873e-11
0.000157634
8.46611e-11
0.000143304
7.56541e-11
0.000130276
6.70241e-11
0.000118433
5.88214e-11
0.000107666
5.10742e-11
9.78783e-05
4.37957e-11
8.89802e-05
3.69843e-11
8.08911e-05
3.06415e-11
7.35374e-05
2.47511e-11
6.68522e-05
1.92957e-11
6.07747e-05
1.42543e-11
5.52497e-05
9.60654e-12
5.0227e-05
5.32703e-12
4.5661e-05
1.38958e-12
4.15099e-05
3.77363e-05
-1.78767e-12
3.77363e-05
-6.80776e-12
4.15099e-05
-1.22728e-11
4.56609e-05
-1.81952e-11
5.0227e-05
-2.45935e-11
5.52497e-05
-3.14799e-11
6.07747e-05
-3.88602e-11
6.68522e-05
-4.67401e-11
7.35374e-05
-5.5123e-11
8.08911e-05
-6.40003e-11
8.89802e-05
-7.33684e-11
9.78783e-05
-8.32158e-11
0.000107666
-9.35188e-11
0.000118433
-1.04251e-10
0.000130276
-1.15363e-10
0.000143304
-1.26787e-10
0.000157634
-1.38436e-10
0.000173397
-1.50197e-10
0.000190737
-1.61922e-10
0.000209811
-1.73454e-10
0.000230792
-1.84583e-10
0.000253871
-1.95123e-10
0.000279258
-2.04792e-10
0.000307184
-2.13408e-10
0.000337902
-2.20606e-10
0.000371693
-2.26239e-10
0.000408862
-2.29868e-10
0.000449748
-2.31401e-10
0.000494723
-2.30373e-10
0.000544195
-2.26742e-10
0.000598615
-2.20222e-10
0.000658476
-2.10719e-10
0.000724324
-1.97975e-10
0.000796756
-1.81751e-10
0.000876432
-1.61564e-10
0.000964075
-1.37165e-10
0.00106048
-1.08263e-10
0.00116653
-7.46888e-11
0.00128318
-3.64506e-11
0.0014115
1.64996e-12
0.0014115
3.5058e-11
0.00128318
6.41232e-11
0.00116653
8.91998e-11
0.00106048
1.10586e-10
0.000964075
1.28556e-10
0.000876432
1.43338e-10
0.000796756
1.55154e-10
0.000724324
1.64158e-10
0.000658476
1.70565e-10
0.000598615
1.74511e-10
0.000544195
1.76238e-10
0.000494723
1.75867e-10
0.000449748
1.73673e-10
0.000408862
1.69765e-10
0.000371693
1.64446e-10
0.000337902
1.57843e-10
0.000307184
1.50266e-10
0.000279258
1.41862e-10
0.000253871
1.32907e-10
0.000230792
1.23549e-10
0.000209811
1.1401e-10
0.000190737
1.04415e-10
0.000173397
9.49221e-11
0.000157634
8.56244e-11
0.000143304
7.66192e-11
0.000130276
6.79648e-11
0.000118433
5.97153e-11
0.000107666
5.18958e-11
9.78783e-05
4.45265e-11
8.89802e-05
3.76173e-11
8.08911e-05
3.11635e-11
7.35374e-05
2.51532e-11
6.68522e-05
1.95809e-11
6.07747e-05
1.4415e-11
5.52497e-05
9.65002e-12
5.0227e-05
5.25877e-12
4.56609e-05
1.2168e-12
4.15099e-05
3.77363e-05
-1.79702e-12
3.77363e-05
-6.83795e-12
4.15099e-05
-1.23163e-11
4.56609e-05
-1.82609e-11
5.0227e-05
-2.46822e-11
5.52497e-05
-3.15902e-11
6.07747e-05
-3.89934e-11
6.68522e-05
-4.69017e-11
7.35374e-05
-5.53085e-11
8.08911e-05
-6.42176e-11
8.89802e-05
-7.36162e-11
9.78783e-05
-8.34963e-11
0.000107666
-9.38352e-11
0.000118433
-1.04603e-10
0.000130276
-1.15754e-10
0.000143304
-1.27221e-10
0.000157634
-1.38912e-10
0.000173397
-1.50716e-10
0.000190737
-1.62484e-10
0.000209811
-1.74058e-10
0.000230792
-1.85227e-10
0.000253871
-1.95806e-10
0.000279258
-2.05509e-10
0.000307184
-2.14153e-10
0.000337902
-2.21373e-10
0.000371693
-2.2702e-10
0.000408862
-2.30652e-10
0.000449748
-2.32172e-10
0.000494723
-2.31129e-10
0.000544195
-2.27463e-10
0.000598615
-2.20898e-10
0.000658476
-2.11349e-10
0.000724324
-1.98534e-10
0.000796756
-1.82247e-10
0.000876432
-1.61986e-10
0.000964075
-1.37516e-10
0.00106048
-1.0854e-10
0.00116653
-7.48902e-11
0.00128318
-3.65747e-11
0.0014115
1.59672e-12
0.0014115
3.50624e-11
0.00128318
6.41759e-11
0.00116653
8.92937e-11
0.00106048
1.10717e-10
0.000964075
1.28717e-10
0.000876432
1.4353e-10
0.000796756
1.55362e-10
0.000724324
1.64383e-10
0.000658476
1.70792e-10
0.000598615
1.74736e-10
0.000544195
1.76452e-10
0.000494723
1.7606e-10
0.000449748
1.73833e-10
0.000408862
1.69878e-10
0.000371693
1.64493e-10
0.000337902
1.57809e-10
0.000307184
1.50131e-10
0.000279258
1.41613e-10
0.000253871
1.32535e-10
0.000230792
1.23057e-10
0.000209811
1.13406e-10
0.000190737
1.03715e-10
0.000173397
9.41469e-11
0.000157634
8.47998e-11
0.000143304
7.57745e-11
0.000130276
6.71312e-11
0.000118433
5.89164e-11
0.000107666
5.11568e-11
9.78783e-05
4.38668e-11
8.89802e-05
3.70468e-11
8.08911e-05
3.06952e-11
7.35374e-05
2.4796e-11
6.68522e-05
1.93321e-11
6.07747e-05
1.42802e-11
5.52497e-05
9.62345e-12
5.0227e-05
5.33871e-12
4.56609e-05
1.39865e-12
4.15099e-05
3.77363e-05
-1.803e-12
3.77363e-05
-6.85776e-12
4.15099e-05
-1.23581e-11
4.56609e-05
-1.8316e-11
5.0227e-05
-2.47561e-11
5.52497e-05
-3.16886e-11
6.07747e-05
-3.91172e-11
6.68522e-05
-4.7048e-11
7.35374e-05
-5.5485e-11
8.08911e-05
-6.44227e-11
8.89802e-05
-7.38565e-11
9.78783e-05
-8.37707e-11
0.000107666
-9.41447e-11
0.000118433
-1.0495e-10
0.000130276
-1.16139e-10
0.000143304
-1.27643e-10
0.000157634
-1.39374e-10
0.000173397
-1.51217e-10
0.000190737
-1.63023e-10
0.000209811
-1.74636e-10
0.000230792
-1.85842e-10
0.000253871
-1.96454e-10
0.000279258
-2.06187e-10
0.000307184
-2.14858e-10
0.000337902
-2.22097e-10
0.000371693
-2.27758e-10
0.000408862
-2.31395e-10
0.000449748
-2.32916e-10
0.000494723
-2.31853e-10
0.000544195
-2.28163e-10
0.000598615
-2.2156e-10
0.000658476
-2.11953e-10
0.000724324
-1.99091e-10
0.000796756
-1.82736e-10
0.000876432
-1.62413e-10
0.000964075
-1.37873e-10
0.00106048
-1.08824e-10
0.00116653
-7.50982e-11
0.00128318
-3.67035e-11
0.0014115
1.54068e-12
0.0014115
3.50659e-11
0.00128318
6.42285e-11
0.00116653
8.9388e-11
0.00106048
1.10845e-10
0.000964075
1.28877e-10
0.000876432
1.4371e-10
0.000796756
1.55567e-10
0.000724324
1.64599e-10
0.000658476
1.71021e-10
0.000598615
1.7497e-10
0.000544195
1.7669e-10
0.000494723
1.76305e-10
0.000449748
1.74091e-10
0.000408862
1.7016e-10
0.000371693
1.64816e-10
0.000337902
1.58187e-10
0.000307184
1.50583e-10
0.000279258
1.42153e-10
0.000253871
1.33173e-10
0.000230792
1.23791e-10
0.000209811
1.1423e-10
0.000190737
1.04613e-10
0.000173397
9.51001e-11
0.000157634
8.5782e-11
0.000143304
7.67578e-11
0.000130276
6.80875e-11
0.000118433
5.9821e-11
0.000107666
5.19882e-11
9.78783e-05
4.46082e-11
8.89802e-05
3.76842e-11
8.08911e-05
3.12207e-11
7.35374e-05
2.52007e-11
6.68522e-05
1.96162e-11
6.07747e-05
1.4448e-11
5.52497e-05
9.67582e-12
5.0227e-05
5.274e-12
4.56609e-05
1.22569e-12
4.15099e-05
3.77363e-05
-1.81207e-12
3.77363e-05
-6.88618e-12
4.15099e-05
-1.23954e-11
4.56609e-05
-1.83755e-11
5.0227e-05
-2.48327e-11
5.52497e-05
-3.17842e-11
6.07747e-05
-3.9233e-11
6.68522e-05
-4.71887e-11
7.35374e-05
-5.56504e-11
8.08911e-05
-6.46132e-11
8.89802e-05
-7.40736e-11
9.78783e-05
-8.4016e-11
0.000107666
-9.44235e-11
0.000118433
-1.05262e-10
0.000130276
-1.16486e-10
0.000143304
-1.28028e-10
0.000157634
-1.39797e-10
0.000173397
-1.51678e-10
0.000190737
-1.63523e-10
0.000209811
-1.75175e-10
0.000230792
-1.86417e-10
0.000253871
-1.97064e-10
0.000279258
-2.06828e-10
0.000307184
-2.15527e-10
0.000337902
-2.22788e-10
0.000371693
-2.28464e-10
0.000408862
-2.32107e-10
0.000449748
-2.33621e-10
0.000494723
-2.32551e-10
0.000544195
-2.28837e-10
0.000598615
-2.222e-10
0.000658476
-2.12559e-10
0.000724324
-1.99637e-10
0.000796756
-1.8323e-10
0.000876432
-1.6284e-10
0.000964075
-1.38232e-10
0.00106048
-1.09111e-10
0.00116653
-7.53099e-11
0.00128318
-3.68362e-11
0.0014115
1.48138e-12
0.0014115
3.50672e-11
0.00128318
6.42805e-11
0.00116653
8.94828e-11
0.00106048
1.10978e-10
0.000964075
1.29039e-10
0.000876432
1.43903e-10
0.000796756
1.55774e-10
0.000724324
1.64824e-10
0.000658476
1.71248e-10
0.000598615
1.75197e-10
0.000544195
1.76908e-10
0.000494723
1.76505e-10
0.000449748
1.7426e-10
0.000408862
1.70286e-10
0.000371693
1.64879e-10
0.000337902
1.58171e-10
0.000307184
1.50468e-10
0.000279258
1.41926e-10
0.000253871
1.32824e-10
0.000230792
1.23321e-10
0.000209811
1.13645e-10
0.000190737
1.03931e-10
0.000173397
9.43416e-11
0.000157634
8.49749e-11
0.000143304
7.59315e-11
0.000130276
6.72684e-11
0.000118433
5.90372e-11
0.000107666
5.12607e-11
9.78783e-05
4.39559e-11
8.89802e-05
3.71208e-11
8.08911e-05
3.07574e-11
7.35374e-05
2.48461e-11
6.68522e-05
1.9371e-11
6.07747e-05
1.43121e-11
5.52497e-05
9.64469e-12
5.0227e-05
5.35216e-12
4.56609e-05
1.40753e-12
4.15099e-05
3.77363e-05
-1.81432e-12
3.77363e-05
-6.89861e-12
4.15099e-05
-1.24319e-11
4.56609e-05
-1.84289e-11
5.0227e-05
-2.49091e-11
5.52497e-05
-3.18808e-11
6.07747e-05
-3.93563e-11
6.68522e-05
-4.73399e-11
7.35374e-05
-5.58284e-11
8.08911e-05
-6.48201e-11
8.89802e-05
-7.43072e-11
9.78783e-05
-8.42809e-11
0.000107666
-9.47191e-11
0.000118433
-1.05592e-10
0.000130276
-1.16849e-10
0.000143304
-1.28424e-10
0.000157634
-1.40225e-10
0.000173397
-1.52142e-10
0.000190737
-1.64022e-10
0.000209811
-1.75708e-10
0.000230792
-1.86982e-10
0.000253871
-1.97659e-10
0.000279258
-2.07451e-10
0.000307184
-2.16173e-10
0.000337902
-2.23452e-10
0.000371693
-2.29142e-10
0.000408862
-2.32791e-10
0.000449748
-2.34312e-10
0.000494723
-2.33226e-10
0.000544195
-2.29494e-10
0.000598614
-2.22828e-10
0.000658476
-2.13139e-10
0.000724324
-2.00178e-10
0.000796756
-1.83713e-10
0.000876431
-1.63267e-10
0.000964075
-1.38593e-10
0.00106048
-1.09402e-10
0.00116653
-7.55249e-11
0.00128318
-3.69706e-11
0.0014115
1.42242e-12
0.0014115