/*--------------------------------*- C++ -*----------------------------------*\
| =========                 |                                                 |
| \\      /  F ield         | OpenFOAM: The Open Source CFD Toolbox           |
|  \\    /   O peration     | Version:  5.x                                   |
|   \\  /    A nd           | Web:      www.OpenFOAM.org                      |
|    \\/     M anipulation  |                                                 |
\*---------------------------------------------------------------------------*/
FoamFile
{
    version     2.0;
    format      ascii;
    class       volVectorField;
    location    "0";
    object      U;
}
// * * * * * * * * * * * * * * * * * * * * * * * * * * * * * * * * * * * * * //

dimensions      [0 1 -1 0 0 0 0];

internalField   nonuniform List<vector> 
130184
(
(44.2 -2.47455e-08 0)
(44.2 -1.67731e-07 0)
(44.2 -4.15609e-07 0)
(44.2 -6.87085e-07 0)
(44.2 -9.83899e-07 0)
(44.2 -1.3076e-06 0)
(44.2 -1.65988e-06 0)
(44.2 -2.04239e-06 0)
(44.2 -2.45631e-06 0)
(44.2 -2.90267e-06 0)
(44.2 -3.38226e-06 0)
(44.2 -3.89539e-06 0)
(44.2 -4.44181e-06 0)
(44.2 -5.02073e-06 0)
(44.2 -5.63076e-06 0)
(44.2 -6.26951e-06 0)
(44.2 -6.9336e-06 0)
(44.2 -7.61846e-06 0)
(44.2 -8.31786e-06 0)
(44.2 -9.02396e-06 0)
(44.2 -9.72693e-06 0)
(44.2 -1.04152e-05 0)
(44.2 -1.10749e-05 0)
(44.2 -1.1691e-05 0)
(44.2 -1.22461e-05 0)
(44.2 -1.27227e-05 0)
(44.2 -1.31009e-05 0)
(44.2 -1.33624e-05 0)
(44.2 -1.3487e-05 0)
(44.2 -1.34566e-05 0)
(44.2 -1.32532e-05 0)
(44.2 -1.28579e-05 0)
(44.2 -1.22569e-05 0)
(44.2 -1.14334e-05 0)
(44.2 -1.03688e-05 0)
(44.2 -9.04532e-06 0)
(44.2 -7.44691e-06 0)
(44.2 -5.56069e-06 0)
(44.2 -3.38569e-06 0)
(44.2 -1.06884e-06 0)
(44.2 1.10617e-06 0)
(44.2 3.00935e-06 0)
(44.2 4.65899e-06 0)
(44.2 6.07196e-06 0)
(44.2 7.2617e-06 0)
(44.2 8.23876e-06 0)
(44.2 9.01382e-06 0)
(44.2 9.59883e-06 0)
(44.2 1.00082e-05 0)
(44.2 1.02566e-05 0)
(44.2 1.03594e-05 0)
(44.2 1.03309e-05 0)
(44.2 1.01861e-05 0)
(44.2 9.93927e-06 0)
(44.2 9.60494e-06 0)
(44.2 9.19779e-06 0)
(44.2 8.73214e-06 0)
(44.2 8.22231e-06 0)
(44.2 7.68151e-06 0)
(44.2 7.12236e-06 0)
(44.2 6.55571e-06 0)
(44.2 5.99133e-06 0)
(44.2 5.43701e-06 0)
(44.2 4.89935e-06 0)
(44.2 4.38315e-06 0)
(44.2 3.89199e-06 0)
(44.2 3.428e-06 0)
(44.2 2.99248e-06 0)
(44.2 2.58599e-06 0)
(44.2 2.20822e-06 0)
(44.2 1.85863e-06 0)
(44.2 1.53619e-06 0)
(44.2 1.23942e-06 0)
(44.2 9.6697e-07 0)
(44.2 7.17401e-07 0)
(44.2 4.89176e-07 0)
(44.2 2.80732e-07 0)
(44.2 9.06406e-08 0)
(44.2 -3.67501e-08 0)
(44.2 -2.06687e-07 0)
(44.2 -4.84922e-07 0)
(44.2 -7.87736e-07 0)
(44.2 -1.11668e-06 0)
(44.2 -1.47267e-06 0)
(44.2 -1.85663e-06 0)
(44.2 -2.26952e-06 0)
(44.2 -2.71182e-06 0)
(44.2 -3.18384e-06 0)
(44.2 -3.68567e-06 0)
(44.2 -4.21729e-06 0)
(44.2 -4.77832e-06 0)
(44.2 -5.3679e-06 0)
(44.2 -5.98463e-06 0)
(44.2 -6.62622e-06 0)
(44.2 -7.28938e-06 0)
(44.2 -7.96952e-06 0)
(44.2 -8.66042e-06 0)
(44.2 -9.35428e-06 0)
(44.2 -1.00412e-05 0)
(44.2 -1.07101e-05 0)
(44.2 -1.13474e-05 0)
(44.2 -1.19388e-05 0)
(44.2 -1.24676e-05 0)
(44.2 -1.29172e-05 0)
(44.2 -1.32686e-05 0)
(44.2 -1.35042e-05 0)
(44.2 -1.36045e-05 0)
(44.2 -1.3552e-05 0)
(44.2 -1.33296e-05 0)
(44.2 -1.2917e-05 0)
(44.2 -1.2302e-05 0)
(44.2 -1.14693e-05 0)
(44.2 -1.03969e-05 0)
(44.2 -9.06468e-06 0)
(44.2 -7.45889e-06 0)
(44.2 -5.56725e-06 0)
(44.2 -3.38643e-06 0)
(44.2 -1.06363e-06 0)
(44.2 1.1157e-06 0)
(44.2 3.02274e-06 0)
(44.2 4.67726e-06 0)
(44.2 6.09591e-06 0)
(44.2 7.29227e-06 0)
(44.2 8.27707e-06 0)
(44.2 9.06156e-06 0)
(44.2 9.65831e-06 0)
(44.2 1.0082e-05 0)
(44.2 1.03475e-05 0)
(44.2 1.04698e-05 0)
(44.2 1.04629e-05 0)
(44.2 1.03408e-05 0)
(44.2 1.01173e-05 0)
(44.2 9.8061e-06 0)
(44.2 9.42109e-06 0)
(44.2 8.97574e-06 0)
(44.2 8.48361e-06 0)
(44.2 7.95705e-06 0)
(44.2 7.40815e-06 0)
(44.2 6.84715e-06 0)
(44.2 6.28354e-06 0)
(44.2 5.72498e-06 0)
(44.2 5.17794e-06 0)
(44.2 4.64739e-06 0)
(44.2 4.13732e-06 0)
(44.2 3.65037e-06 0)
(44.2 3.18855e-06 0)
(44.2 2.75284e-06 0)
(44.2 2.34355e-06 0)
(44.2 1.96064e-06 0)
(44.2 1.60353e-06 0)
(44.2 1.27155e-06 0)
(44.2 9.63779e-07 0)
(44.2 6.78863e-07 0)
(44.2 4.15613e-07 0)
(44.2 1.72804e-07 0)
(44.2 2.81741e-08 0)
(44.2 -4.48247e-08 0)
(44.2 -2.31526e-07 0)
(44.2 -5.27679e-07 0)
(44.2 -8.49167e-07 0)
(44.2 -1.19701e-06 0)
(44.2 -1.57208e-06 0)
(44.2 -1.97499e-06 0)
(44.2 -2.40622e-06 0)
(44.2 -2.86599e-06 0)
(44.2 -3.35443e-06 0)
(44.2 -3.87173e-06 0)
(44.2 -4.41761e-06 0)
(44.2 -4.99156e-06 0)
(44.2 -5.59283e-06 0)
(44.2 -6.21975e-06 0)
(44.2 -6.86971e-06 0)
(44.2 -7.53909e-06 0)
(44.2 -8.22275e-06 0)
(44.2 -8.91393e-06 0)
(44.2 -9.60456e-06 0)
(44.2 -1.02846e-05 0)
(44.2 -1.09429e-05 0)
(44.2 -1.15661e-05 0)
(44.2 -1.21406e-05 0)
(44.2 -1.26499e-05 0)
(44.2 -1.30787e-05 0)
(44.2 -1.34084e-05 0)
(44.2 -1.36224e-05 0)
(44.2 -1.37021e-05 0)
(44.2 -1.36292e-05 0)
(44.2 -1.33885e-05 0)
(44.2 -1.29618e-05 0)
(44.2 -1.23354e-05 0)
(44.2 -1.14939e-05 0)
(44.2 -1.04152e-05 0)
(44.2 -9.07791e-06 0)
(44.2 -7.46766e-06 0)
(44.2 -5.57214e-06 0)
(44.2 -3.38765e-06 0)
(44.2 -1.06141e-06 0)
(44.2 1.12113e-06 0)
(44.2 3.0314e-06 0)
(44.2 4.68934e-06 0)
(44.2 6.11136e-06 0)
(44.2 7.31101e-06 0)
(44.2 8.3002e-06 0)
(44.2 9.09145e-06 0)
(44.2 9.69801e-06 0)
(44.2 1.01346e-05 0)
(44.2 1.04152e-05 0)
(44.2 1.05538e-05 0)
(44.2 1.05636e-05 0)
(44.2 1.04579e-05 0)
(44.2 1.02493e-05 0)
(44.2 9.95063e-06 0)
(44.2 9.57501e-06 0)
(44.2 9.13533e-06 0)
(44.2 8.64497e-06 0)
(44.2 8.11635e-06 0)
(44.2 7.56192e-06 0)
(44.2 6.99248e-06 0)
(44.2 6.41838e-06 0)
(44.2 5.84797e-06 0)
(44.2 5.28845e-06 0)
(44.2 4.74533e-06 0)
(44.2 4.22316e-06 0)
(44.2 3.72488e-06 0)
(44.2 3.2526e-06 0)
(44.2 2.80756e-06 0)
(44.2 2.39001e-06 0)
(44.2 1.99994e-06 0)
(44.2 1.63691e-06 0)
(44.2 1.30002e-06 0)
(44.2 9.88286e-07 0)
(44.2 7.00211e-07 0)
(44.2 4.34454e-07 0)
(44.2 1.89961e-07 0)
(44.2 3.64342e-08 0)
(44.2 -4.86794e-08 0)
(44.2 -2.43837e-07 0)
(44.2 -5.49736e-07 0)
(44.2 -8.81654e-07 0)
(44.2 -1.24055e-06 0)
(44.2 -1.62748e-06 0)
(44.2 -2.0429e-06 0)
(44.2 -2.48709e-06 0)
(44.2 -2.96013e-06 0)
(44.2 -3.46199e-06 0)
(44.2 -3.99251e-06 0)
(44.2 -4.55136e-06 0)
(44.2 -5.13779e-06 0)
(44.2 -5.7506e-06 0)
(44.2 -6.38788e-06 0)
(44.2 -7.04671e-06 0)
(44.2 -7.7231e-06 0)
(44.2 -8.41177e-06 0)
(44.2 -9.10569e-06 0)
(44.2 -9.79655e-06 0)
(44.2 -1.04742e-05 0)
(44.2 -1.11274e-05 0)
(44.2 -1.1743e-05 0)
(44.2 -1.23074e-05 0)
(44.2 -1.28045e-05 0)
(44.2 -1.3219e-05 0)
(44.2 -1.35331e-05 0)
(44.2 -1.37305e-05 0)
(44.2 -1.37932e-05 0)
(44.2 -1.37035e-05 0)
(44.2 -1.34467e-05 0)
(44.2 -1.30067e-05 0)
(44.2 -1.23701e-05 0)
(44.2 -1.15206e-05 0)
(44.2 -1.04357e-05 0)
(44.2 -9.09337e-06 0)
(44.2 -7.47862e-06 0)
(44.2 -5.57883e-06 0)
(44.2 -3.39013e-06 0)
(44.2 -1.05977e-06 0)
(44.2 1.12653e-06 0)
(44.2 3.03993e-06 0)
(44.2 4.70044e-06 0)
(44.2 6.12466e-06 0)
(44.2 7.32657e-06 0)
(44.2 8.31936e-06 0)
(44.2 9.11673e-06 0)
(44.2 9.7322e-06 0)
(44.2 1.01798e-05 0)
(44.2 1.04728e-05 0)
(44.2 1.06246e-05 0)
(44.2 1.06478e-05 0)
(44.2 1.05551e-05 0)
(44.2 1.03589e-05 0)
(44.2 1.00716e-05 0)
(44.2 9.70599e-06 0)
(44.2 9.27497e-06 0)
(44.2 8.79172e-06 0)
(44.2 8.26849e-06 0)
(44.2 7.71761e-06 0)
(44.2 7.14978e-06 0)
(44.2 6.57512e-06 0)
(44.2 6.00185e-06 0)
(44.2 5.43734e-06 0)
(44.2 4.88724e-06 0)
(44.2 4.35617e-06 0)
(44.2 3.84746e-06 0)
(44.2 3.36357e-06 0)
(44.2 2.90599e-06 0)
(44.2 2.47561e-06 0)
(44.2 2.07251e-06 0)
(44.2 1.69642e-06 0)
(44.2 1.34672e-06 0)
(44.2 1.02232e-06 0)
(44.2 7.22091e-07 0)
(44.2 4.44964e-07 0)
(44.2 1.89834e-07 0)
(44.2 3.38054e-08 0)
(44.2 -5.0572e-08 0)
(44.2 -2.50246e-07 0)
(44.2 -5.61328e-07 0)
(44.2 -8.9889e-07 0)
(44.2 -1.26429e-06 0)
(44.2 -1.65824e-06 0)
(44.2 -2.08107e-06 0)
(44.2 -2.53318e-06 0)
(44.2 -3.01474e-06 0)
(44.2 -3.52563e-06 0)
(44.2 -4.06558e-06 0)
(44.2 -4.63412e-06 0)
(44.2 -5.23029e-06 0)
(44.2 -5.85272e-06 0)
(44.2 -6.49939e-06 0)
(44.2 -7.16711e-06 0)
(44.2 -7.8516e-06 0)
(44.2 -8.54718e-06 0)
(44.2 -9.24656e-06 0)
(44.2 -9.94116e-06 0)
(44.2 -1.06205e-05 0)
(44.2 -1.12734e-05 0)
(44.2 -1.18863e-05 0)
(44.2 -1.24459e-05 0)
(44.2 -1.29359e-05 0)
(44.2 -1.33413e-05 0)
(44.2 -1.36443e-05 0)
(44.2 -1.38288e-05 0)
(44.2 -1.38776e-05 0)
(44.2 -1.37737e-05 0)
(44.2 -1.35035e-05 0)
(44.2 -1.30522e-05 0)
(44.2 -1.24064e-05 0)
(44.2 -1.15493e-05 0)
(44.2 -1.04582e-05 0)
(44.2 -9.1107e-06 0)
(44.2 -7.49132e-06 0)
(44.2 -5.58701e-06 0)
(44.2 -3.3937e-06 0)
(44.2 -1.05878e-06 0)
(44.2 1.13146e-06 0)
(44.2 3.04779e-06 0)
(44.2 4.71029e-06 0)
(44.2 6.13622e-06 0)
(44.2 7.34022e-06 0)
(44.2 8.33655e-06 0)
(44.2 9.13956e-06 0)
(44.2 9.76258e-06 0)
(44.2 1.0219e-05 0)
(44.2 1.05212e-05 0)
(44.2 1.0682e-05 0)
(44.2 1.07133e-05 0)
(44.2 1.06272e-05 0)
(44.2 1.04353e-05 0)
(44.2 1.01498e-05 0)
(44.2 9.78305e-06 0)
(44.2 9.348e-06 0)
(44.2 8.85808e-06 0)
(44.2 8.32602e-06 0)
(44.2 7.76486e-06 0)
(44.2 7.18607e-06 0)
(44.2 6.60046e-06 0)
(44.2 6.01699e-06 0)
(44.2 5.44355e-06 0)
(44.2 4.88608e-06 0)
(44.2 4.34948e-06 0)
(44.2 3.83707e-06 0)
(44.2 3.35111e-06 0)
(44.2 2.89302e-06 0)
(44.2 2.46333e-06 0)
(44.2 2.06204e-06 0)
(44.2 1.68861e-06 0)
(44.2 1.34209e-06 0)
(44.2 1.02144e-06 0)
(44.2 7.25371e-07 0)
(44.2 4.52372e-07 0)
(44.2 2.01239e-07 0)
(44.2 4.05294e-08 0)
(44.2 -5.21139e-08 0)
(44.2 -2.54989e-07 0)
(44.2 -5.69843e-07 0)
(44.2 -9.11776e-07 0)
(44.2 -1.28155e-06 0)
(44.2 -1.68011e-06 0)
(44.2 -2.10807e-06 0)
(44.2 -2.56571e-06 0)
(44.2 -3.05314e-06 0)
(44.2 -3.57021e-06 0)
(44.2 -4.11675e-06 0)
(44.2 -4.69214e-06 0)
(44.2 -5.29535e-06 0)
(44.2 -5.92504e-06 0)
(44.2 -6.57899e-06 0)
(44.2 -7.25392e-06 0)
(44.2 -7.94527e-06 0)
(44.2 -8.64716e-06 0)
(44.2 -9.35214e-06 0)
(44.2 -1.00514e-05 0)
(44.2 -1.07341e-05 0)
(44.2 -1.13888e-05 0)
(44.2 -1.20019e-05 0)
(44.2 -1.25598e-05 0)
(44.2 -1.30462e-05 0)
(44.2 -1.34462e-05 0)
(44.2 -1.3742e-05 0)
(44.2 -1.39175e-05 0)
(44.2 -1.39557e-05 0)
(44.2 -1.38403e-05 0)
(44.2 -1.3559e-05 0)
(44.2 -1.30976e-05 0)
(44.2 -1.24434e-05 0)
(44.2 -1.15792e-05 0)
(44.2 -1.04821e-05 0)
(44.2 -9.12944e-06 0)
(44.2 -7.50532e-06 0)
(44.2 -5.59639e-06 0)
(44.2 -3.39833e-06 0)
(44.2 -1.05875e-06 0)
(44.2 1.13538e-06 0)
(44.2 3.05446e-06 0)
(44.2 4.71872e-06 0)
(44.2 6.14613e-06 0)
(44.2 7.35232e-06 0)
(44.2 8.35219e-06 0)
(44.2 9.16025e-06 0)
(44.2 9.78952e-06 0)
(44.2 1.02528e-05 0)
(44.2 1.05621e-05 0)
(44.2 1.07297e-05 0)
(44.2 1.0767e-05 0)
(44.2 1.06863e-05 0)
(44.2 1.04992e-05 0)
(44.2 1.02178e-05 0)
(44.2 9.85495e-06 0)
(44.2 9.4236e-06 0)
(44.2 8.9373e-06 0)
(44.2 8.40881e-06 0)
(44.2 7.85089e-06 0)
(44.2 7.2747e-06 0)
(44.2 6.69083e-06 0)
(44.2 6.10791e-06 0)
(44.2 5.53354e-06 0)
(44.2 4.97363e-06 0)
(44.2 4.4331e-06 0)
(44.2 3.91537e-06 0)
(44.2 3.423e-06 0)
(44.2 2.95743e-06 0)
(44.2 2.51939e-06 0)
(44.2 2.10922e-06 0)
(44.2 1.72671e-06 0)
(44.2 1.37102e-06 0)
(44.2 1.04134e-06 0)
(44.2 7.36547e-07 0)
(44.2 4.55203e-07 0)
(44.2 1.96031e-07 0)
(44.2 3.59038e-08 0)
(44.2 -5.30644e-08 0)
(44.2 -2.58315e-07 0)
(44.2 -5.75965e-07 0)
(44.2 -9.20891e-07 0)
(44.2 -1.29391e-06 0)
(44.2 -1.69594e-06 0)
(44.2 -2.12776e-06 0)
(44.2 -2.58951e-06 0)
(44.2 -3.08139e-06 0)
(44.2 -3.60328e-06 0)
(44.2 -4.15483e-06 0)
(44.2 -4.73538e-06 0)
(44.2 -5.34403e-06 0)
(44.2 -5.97942e-06 0)
(44.2 -6.63916e-06 0)
(44.2 -7.31983e-06 0)
(44.2 -8.01683e-06 0)
(44.2 -8.7242e-06 0)
(44.2 -9.43422e-06 0)
(44.2 -1.01379e-05 0)
(44.2 -1.08243e-05 0)
(44.2 -1.14818e-05 0)
(44.2 -1.20965e-05 0)
(44.2 -1.26545e-05 0)
(44.2 -1.31397e-05 0)
(44.2 -1.35368e-05 0)
(44.2 -1.3828e-05 0)
(44.2 -1.39972e-05 0)
(44.2 -1.40276e-05 0)
(44.2 -1.39033e-05 0)
(44.2 -1.36127e-05 0)
(44.2 -1.31431e-05 0)
(44.2 -1.2481e-05 0)
(44.2 -1.161e-05 0)
(44.2 -1.0507e-05 0)
(44.2 -9.14919e-06 0)
(44.2 -7.52033e-06 0)
(44.2 -5.60678e-06 0)
(44.2 -3.40401e-06 0)
(44.2 -1.05988e-06 0)
(44.2 1.13801e-06 0)
(44.2 3.05979e-06 0)
(44.2 4.72598e-06 0)
(44.2 6.15515e-06 0)
(44.2 7.36369e-06 0)
(44.2 8.36694e-06 0)
(44.2 9.17929e-06 0)
(44.2 9.81344e-06 0)
(44.2 1.02817e-05 0)
(44.2 1.05955e-05 0)
(44.2 1.07668e-05 0)
(44.2 1.08068e-05 0)
(44.2 1.07273e-05 0)
(44.2 1.05395e-05 0)
(44.2 1.02556e-05 0)
(44.2 9.88834e-06 0)
(44.2 9.45075e-06 0)
(44.2 8.95671e-06 0)
(44.2 8.41934e-06 0)
(44.2 7.85205e-06 0)
(44.2 7.26656e-06 0)
(44.2 6.67399e-06 0)
(44.2 6.08357e-06 0)
(44.2 5.50328e-06 0)
(44.2 4.93928e-06 0)
(44.2 4.39648e-06 0)
(44.2 3.87823e-06 0)
(44.2 3.38693e-06 0)
(44.2 2.92394e-06 0)
(44.2 2.48978e-06 0)
(44.2 2.08428e-06 0)
(44.2 1.707e-06 0)
(44.2 1.35707e-06 0)
(44.2 1.03315e-06 0)
(44.2 7.3399e-07 0)
(44.2 4.58439e-07 0)
(44.2 2.05012e-07 0)
(44.2 4.18163e-08 0)
(44.2 -5.38209e-08 0)
(44.2 -2.60685e-07 0)
(44.2 -5.80356e-07 0)
(44.2 -9.27494e-07 0)
(44.2 -1.30303e-06 0)
(44.2 -1.70779e-06 0)
(44.2 -2.1424e-06 0)
(44.2 -2.60728e-06 0)
(44.2 -3.1024e-06 0)
(44.2 -3.62783e-06 0)
(44.2 -4.18311e-06 0)
(44.2 -4.7677e-06 0)
(44.2 -5.38078e-06 0)
(44.2 -6.02065e-06 0)
(44.2 -6.68505e-06 0)
(44.2 -7.37058e-06 0)
(44.2 -8.07247e-06 0)
(44.2 -8.78456e-06 0)
(44.2 -9.49915e-06 0)
(44.2 -1.02071e-05 0)
(44.2 -1.08973e-05 0)
(44.2 -1.15578e-05 0)
(44.2 -1.21747e-05 0)
(44.2 -1.2734e-05 0)
(44.2 -1.32192e-05 0)
(44.2 -1.3615e-05 0)
(44.2 -1.39037e-05 0)
(44.2 -1.4069e-05 0)
(44.2 -1.4094e-05 0)
(44.2 -1.3963e-05 0)
(44.2 -1.36652e-05 0)
(44.2 -1.31879e-05 0)
(44.2 -1.25188e-05 0)
(44.2 -1.16415e-05 0)
(44.2 -1.05328e-05 0)
(44.2 -9.16994e-06 0)
(44.2 -7.53631e-06 0)
(44.2 -5.61813e-06 0)
(44.2 -3.41069e-06 0)
(44.2 -1.06207e-06 0)
(44.2 1.13953e-06 0)
(44.2 3.06408e-06 0)
(44.2 4.73238e-06 0)
(44.2 6.16352e-06 0)
(44.2 7.37447e-06 0)
(44.2 8.38071e-06 0)
(44.2 9.1966e-06 0)
(44.2 9.83449e-06 0)
(44.2 1.03064e-05 0)
(44.2 1.06234e-05 0)
(44.2 1.07974e-05 0)
(44.2 1.08395e-05 0)
(44.2 1.07618e-05 0)
(44.2 1.05757e-05 0)
(44.2 1.02938e-05 0)
(44.2 9.92891e-06 0)
(44.2 9.49438e-06 0)
(44.2 9.00405e-06 0)
(44.2 8.47097e-06 0)
(44.2 7.90819e-06 0)
(44.2 7.327e-06 0)
(44.2 6.73812e-06 0)
(44.2 6.15029e-06 0)
(44.2 5.57129e-06 0)
(44.2 5.00709e-06 0)
(44.2 4.46253e-06 0)
(44.2 3.94101e-06 0)
(44.2 3.44514e-06 0)
(44.2 2.97645e-06 0)
(44.2 2.5357e-06 0)
(44.2 2.12312e-06 0)
(44.2 1.73836e-06 0)
(44.2 1.38062e-06 0)
(44.2 1.0489e-06 0)
(44.2 7.422e-07 0)
(44.2 4.59165e-07 0)
(44.2 1.9855e-07 0)
(44.2 3.68892e-08 0)
(44.2 -5.43716e-08 0)
(44.2 -2.62691e-07 0)
(44.2 -5.84071e-07 0)
(44.2 -9.32925e-07 0)
(44.2 -1.31029e-06 0)
(44.2 -1.71705e-06 0)
(44.2 -2.1539e-06 0)
(44.2 -2.62132e-06 0)
(44.2 -3.1193e-06 0)
(44.2 -3.64767e-06 0)
(44.2 -4.20615e-06 0)
(44.2 -4.79427e-06 0)
(44.2 -5.41099e-06 0)
(44.2 -6.05463e-06 0)
(44.2 -6.72283e-06 0)
(44.2 -7.41224e-06 0)
(44.2 -8.11811e-06 0)
(44.2 -8.83425e-06 0)
(44.2 -9.55282e-06 0)
(44.2 -1.02645e-05 0)
(44.2 -1.09582e-05 0)
(44.2 -1.16218e-05 0)
(44.2 -1.22412e-05 0)
(44.2 -1.28022e-05 0)
(44.2 -1.32883e-05 0)
(44.2 -1.36839e-05 0)
(44.2 -1.39712e-05 0)
(44.2 -1.41339e-05 0)
(44.2 -1.41551e-05 0)
(44.2 -1.40192e-05 0)
(44.2 -1.37155e-05 0)
(44.2 -1.32322e-05 0)
(44.2 -1.25569e-05 0)
(44.2 -1.16736e-05 0)
(44.2 -1.05595e-05 0)
(44.2 -9.19151e-06 0)
(44.2 -7.55315e-06 0)
(44.2 -5.63034e-06 0)
(44.2 -3.41826e-06 0)
(44.2 -1.06523e-06 0)
(44.2 1.14006e-06 0)
(44.2 3.06747e-06 0)
(44.2 4.73811e-06 0)
(44.2 6.17147e-06 0)
(44.2 7.38483e-06 0)
(44.2 8.39384e-06 0)
(44.2 9.21257e-06 0)
(44.2 9.85316e-06 0)
(44.2 1.03274e-05 0)
(44.2 1.0646e-05 0)
(44.2 1.0821e-05 0)
(44.2 1.08631e-05 0)
(44.2 1.07842e-05 0)
(44.2 1.05958e-05 0)
(44.2 1.03101e-05 0)
(44.2 9.94028e-06 0)
(44.2 9.49945e-06 0)
(44.2 9.00178e-06 0)
(44.2 8.46064e-06 0)
(44.2 7.88951e-06 0)
(44.2 7.30025e-06 0)
(44.2 6.70411e-06 0)
(44.2 6.11026e-06 0)
(44.2 5.52684e-06 0)
(44.2 4.95998e-06 0)
(44.2 4.41454e-06 0)
(44.2 3.89391e-06 0)
(44.2 3.40049e-06 0)
(44.2 2.93559e-06 0)
(44.2 2.4997e-06 0)
(44.2 2.09265e-06 0)
(44.2 1.71394e-06 0)
(44.2 1.36264e-06 0)
(44.2 1.03761e-06 0)
(44.2 7.37628e-07 0)
(44.2 4.61384e-07 0)
(44.2 2.07139e-07 0)
(44.2 4.2622e-08 0)
(44.2 -5.48121e-08 0)
(44.2 -2.64288e-07 0)
(44.2 -5.87155e-07 0)
(44.2 -9.376e-07 0)
(44.2 -1.31652e-06 0)
(44.2 -1.72505e-06 0)
(44.2 -2.16396e-06 0)
(44.2 -2.6335e-06 0)
(44.2 -3.13377e-06 0)
(44.2 -3.66457e-06 0)
(44.2 -4.22563e-06 0)
(44.2 -4.8165e-06 0)
(44.2 -5.43613e-06 0)
(44.2 -6.08293e-06 0)
(44.2 -6.75457e-06 0)
(44.2 -7.4475e-06 0)
(44.2 -8.15689e-06 0)
(44.2 -8.8766e-06 0)
(44.2 -9.59867e-06 0)
(44.2 -1.03138e-05 0)
(44.2 -1.10106e-05 0)
(44.2 -1.16771e-05 0)
(44.2 -1.22989e-05 0)
(44.2 -1.28619e-05 0)
(44.2 -1.33492e-05 0)
(44.2 -1.37452e-05 0)
(44.2 -1.4032e-05 0)
(44.2 -1.41933e-05 0)
(44.2 -1.4212e-05 0)
(44.2 -1.40724e-05 0)
(44.2 -1.37642e-05 0)
(44.2 -1.32754e-05 0)
(44.2 -1.25947e-05 0)
(44.2 -1.17061e-05 0)
(44.2 -1.05867e-05 0)
(44.2 -9.21393e-06 0)
(44.2 -7.57085e-06 0)
(44.2 -5.64339e-06 0)
(44.2 -3.42664e-06 0)
(44.2 -1.06915e-06 0)
(44.2 1.1399e-06 0)
(44.2 3.07029e-06 0)
(44.2 4.74339e-06 0)
(44.2 6.17903e-06 0)
(44.2 7.3947e-06 0)
(44.2 8.40601e-06 0)
(44.2 9.22704e-06 0)
(44.2 9.8697e-06 0)
(44.2 1.03456e-05 0)
(44.2 1.06655e-05 0)
(44.2 1.08413e-05 0)
(44.2 1.0884e-05 0)
(44.2 1.08058e-05 0)
(44.2 1.06183e-05 0)
(44.2 1.03342e-05 0)
(44.2 9.96674e-06 0)
(44.2 9.52934e-06 0)
(44.2 9.03602e-06 0)
(44.2 8.49988e-06 0)
(44.2 7.9341e-06 0)
(44.2 7.35007e-06 0)
(44.2 6.75854e-06 0)
(44.2 6.16832e-06 0)
(44.2 5.58715e-06 0)
(44.2 5.0209e-06 0)
(44.2 4.47451e-06 0)
(44.2 3.95146e-06 0)
(44.2 3.45412e-06 0)
(44.2 2.98409e-06 0)
(44.2 2.54232e-06 0)
(44.2 2.12877e-06 0)
(44.2 1.74301e-06 0)
(44.2 1.38434e-06 0)
(44.2 1.05192e-06 0)
(44.2 7.44592e-07 0)
(44.2 4.6113e-07 0)
(44.2 1.99993e-07 0)
(44.2 3.73558e-08 0)
(44.2 -5.53077e-08 0)
(44.2 -2.65751e-07 0)
(44.2 -5.89581e-07 0)
(44.2 -9.41153e-07 0)
(44.2 -1.32153e-06 0)
(44.2 -1.73184e-06 0)
(44.2 -2.17261e-06 0)
(44.2 -2.64398e-06 0)
(44.2 -3.1463e-06 0)
(44.2 -3.67935e-06 0)
(44.2 -4.2428e-06 0)
(44.2 -4.83616e-06 0)
(44.2 -5.45841e-06 0)
(44.2 -6.10798e-06 0)
(44.2 -6.78246e-06 0)
(44.2 -7.47835e-06 0)
(44.2 -8.19086e-06 0)
(44.2 -8.91372e-06 0)
(44.2 -9.63892e-06 0)
(44.2 -1.03571e-05 0)
(44.2 -1.10569e-05 0)
(44.2 -1.17262e-05 0)
(44.2 -1.23504e-05 0)
(44.2 -1.29153e-05 0)
(44.2 -1.34041e-05 0)
(44.2 -1.38009e-05 0)
(44.2 -1.40878e-05 0)
(44.2 -1.4248e-05 0)
(44.2 -1.42649e-05 0)
(44.2 -1.41226e-05 0)
(44.2 -1.38108e-05 0)
(44.2 -1.3318e-05 0)
(44.2 -1.26325e-05 0)
(44.2 -1.17388e-05 0)
(44.2 -1.06147e-05 0)
(44.2 -9.23697e-06 0)
(44.2 -7.58923e-06 0)
(44.2 -5.65712e-06 0)
(44.2 -3.43569e-06 0)
(44.2 -1.07375e-06 0)
(44.2 1.1391e-06 0)
(44.2 3.07259e-06 0)
(44.2 4.7483e-06 0)
(44.2 6.18632e-06 0)
(44.2 7.40424e-06 0)
(44.2 8.41774e-06 0)
(44.2 9.24064e-06 0)
(44.2 9.8848e-06 0)
(44.2 1.03617e-05 0)
(44.2 1.0682e-05 0)
(44.2 1.08576e-05 0)
(44.2 1.08994e-05 0)
(44.2 1.08194e-05 0)
(44.2 1.06293e-05 0)
(44.2 1.03415e-05 0)
(44.2 9.96925e-06 0)
(44.2 9.52592e-06 0)
(44.2 9.02575e-06 0)
(44.2 8.48209e-06 0)
(44.2 7.90853e-06 0)
(44.2 7.31703e-06 0)
(44.2 6.71883e-06 0)
(44.2 6.12317e-06 0)
(44.2 5.53811e-06 0)
(44.2 4.96978e-06 0)
(44.2 4.42303e-06 0)
(44.2 3.90122e-06 0)
(44.2 3.40677e-06 0)
(44.2 2.94097e-06 0)
(44.2 2.50419e-06 0)
(44.2 2.09641e-06 0)
(44.2 1.71717e-06 0)
(44.2 1.36545e-06 0)
(44.2 1.04005e-06 0)
(44.2 7.39688e-07 0)
(44.2 4.62942e-07 0)
(44.2 2.08215e-07 0)
(44.2 4.3077e-08 0)
(44.2 -5.54179e-08 0)
(44.2 -2.66459e-07 0)
(44.2 -5.915e-07 0)
(44.2 -9.44512e-07 0)
(44.2 -1.32645e-06 0)
(44.2 -1.73828e-06 0)
(44.2 -2.18055e-06 0)
(44.2 -2.65361e-06 0)
(44.2 -3.15776e-06 0)
(44.2 -3.69283e-06 0)
(44.2 -4.25844e-06 0)
(44.2 -4.85412e-06 0)
(44.2 -5.47878e-06 0)
(44.2 -6.13087e-06 0)
(44.2 -6.80804e-06 0)
(44.2 -7.50667e-06 0)
(44.2 -8.22196e-06 0)
(44.2 -8.94764e-06 0)
(44.2 -9.67571e-06 0)
(44.2 -1.03967e-05 0)
(44.2 -1.10992e-05 0)
(44.2 -1.17709e-05 0)
(44.2 -1.23974e-05 0)
(44.2 -1.29642e-05 0)
(44.2 -1.34544e-05 0)
(44.2 -1.38522e-05 0)
(44.2 -1.41393e-05 0)
(44.2 -1.42993e-05 0)
(44.2 -1.4315e-05 0)
(44.2 -1.41706e-05 0)
(44.2 -1.38559e-05 0)
(44.2 -1.33592e-05 0)
(44.2 -1.26695e-05 0)
(44.2 -1.17715e-05 0)
(44.2 -1.06428e-05 0)
(44.2 -9.26061e-06 0)
(44.2 -7.60826e-06 0)
(44.2 -5.6715e-06 0)
(44.2 -3.44533e-06 0)
(44.2 -1.07882e-06 0)
(44.2 1.13795e-06 0)
(44.2 3.07462e-06 0)
(44.2 4.75302e-06 0)
(44.2 6.19336e-06 0)
(44.2 7.4134e-06 0)
(44.2 8.42872e-06 0)
(44.2 9.25325e-06 0)
(44.2 9.89869e-06 0)
(44.2 1.03765e-05 0)
(44.2 1.06974e-05 0)
(44.2 1.08733e-05 0)
(44.2 1.09153e-05 0)
(44.2 1.08358e-05 0)
(44.2 1.06466e-05 0)
(44.2 1.03606e-05 0)
(44.2 9.99099e-06 0)
(44.2 9.55142e-06 0)
(44.2 9.056e-06 0)
(44.2 8.51785e-06 0)
(44.2 7.95012e-06 0)
(44.2 7.36432e-06 0)
(44.2 6.77118e-06 0)
(44.2 6.17946e-06 0)
(44.2 5.59695e-06 0)
(44.2 5.02956e-06 0)
(44.2 4.48211e-06 0)
(44.2 3.95809e-06 0)
(44.2 3.45995e-06 0)
(44.2 2.9891e-06 0)
(44.2 2.54646e-06 0)
(44.2 2.13221e-06 0)
(44.2 1.74582e-06 0)
(44.2 1.38676e-06 0)
(44.2 1.05388e-06 0)
(44.2 7.46018e-07 0)
(44.2 4.62174e-07 0)
(44.2 2.00743e-07 0)
(44.2 3.7721e-08 0)
(44.2 -5.57077e-08 0)
(44.2 -2.67685e-07 0)
(44.2 -5.93784e-07 0)
(44.2 -9.47898e-07 0)
(44.2 -1.33124e-06 0)
(44.2 -1.74445e-06 0)
(44.2 -2.1881e-06 0)
(44.2 -2.66276e-06 0)
(44.2 -3.16852e-06 0)
(44.2 -3.70531e-06 0)
(44.2 -4.27286e-06 0)
(44.2 -4.8705e-06 0)
(44.2 -5.49729e-06 0)
(44.2 -6.15161e-06 0)
(44.2 -6.83109e-06 0)
(44.2 -7.53224e-06 0)
(44.2 -8.25014e-06 0)
(44.2 -8.9785e-06 0)
(44.2 -9.70922e-06 0)
(44.2 -1.04328e-05 0)
(44.2 -1.11379e-05 0)
(44.2 -1.1812e-05 0)
(44.2 -1.24408e-05 0)
(44.2 -1.30095e-05 0)
(44.2 -1.35013e-05 0)
(44.2 -1.39002e-05 0)
(44.2 -1.41879e-05 0)
(44.2 -1.43476e-05 0)
(44.2 -1.43624e-05 0)
(44.2 -1.42164e-05 0)
(44.2 -1.38992e-05 0)
(44.2 -1.33997e-05 0)
(44.2 -1.27064e-05 0)
(44.2 -1.18043e-05 0)
(44.2 -1.06713e-05 0)
(44.2 -9.28458e-06 0)
(44.2 -7.62773e-06 0)
(44.2 -5.68633e-06 0)
(44.2 -3.45542e-06 0)
(44.2 -1.08432e-06 0)
(44.2 1.13644e-06 0)
(44.2 3.0764e-06 0)
(44.2 4.75757e-06 0)
(44.2 6.20034e-06 0)
(44.2 7.42247e-06 0)
(44.2 8.43967e-06 0)
(44.2 9.26566e-06 0)
(44.2 9.91212e-06 0)
(44.2 1.03905e-05 0)
(44.2 1.07114e-05 0)
(44.2 1.08868e-05 0)
(44.2 1.09279e-05 0)
(44.2 1.08467e-05 0)
(44.2 1.0655e-05 0)
(44.2 1.03655e-05 0)
(44.2 9.99137e-06 0)
(44.2 9.54614e-06 0)
(44.2 9.04406e-06 0)
(44.2 8.49861e-06 0)
(44.2 7.92339e-06 0)
(44.2 7.33038e-06 0)
(44.2 6.73075e-06 0)
(44.2 6.13372e-06 0)
(44.2 5.54736e-06 0)
(44.2 4.97781e-06 0)
(44.2 4.43009e-06 0)
(44.2 3.90748e-06 0)
(44.2 3.41227e-06 0)
(44.2 2.94574e-06 0)
(44.2 2.50833e-06 0)
(44.2 2.10001e-06 0)
(44.2 1.72023e-06 0)
(44.2 1.36797e-06 0)
(44.2 1.04198e-06 0)
(44.2 7.41015e-07 0)
(44.2 4.63828e-07 0)
(44.2 2.08858e-07 0)
(44.2 4.33582e-08 0)
(44.2 -5.58932e-08 0)
(44.2 -2.68484e-07 0)
(44.2 -5.95693e-07 0)
(44.2 -9.509e-07 0)
(44.2 -1.33524e-06 0)
(44.2 -1.74979e-06 0)
(44.2 -2.19498e-06 0)
(44.2 -2.67113e-06 0)
(44.2 -3.17853e-06 0)
(44.2 -3.71715e-06 0)
(44.2 -4.28666e-06 0)
(44.2 -4.88645e-06 0)
(44.2 -5.51539e-06 0)
(44.2 -6.17194e-06 0)
(44.2 -6.85375e-06 0)
(44.2 -7.55725e-06 0)
(44.2 -8.27756e-06 0)
(44.2 -9.00834e-06 0)
(44.2 -9.74145e-06 0)
(44.2 -1.04674e-05 0)
(44.2 -1.11748e-05 0)
(44.2 -1.18512e-05 0)
(44.2 -1.24819e-05 0)
(44.2 -1.30524e-05 0)
(44.2 -1.35456e-05 0)
(44.2 -1.39455e-05 0)
(44.2 -1.42338e-05 0)
(44.2 -1.43937e-05 0)
(44.2 -1.44079e-05 0)
(44.2 -1.42605e-05 0)
(44.2 -1.39414e-05 0)
(44.2 -1.34389e-05 0)
(44.2 -1.27424e-05 0)
(44.2 -1.18367e-05 0)
(44.2 -1.06997e-05 0)
(44.2 -9.30888e-06 0)
(44.2 -7.6476e-06 0)
(44.2 -5.70159e-06 0)
(44.2 -3.46586e-06 0)
(44.2 -1.09005e-06 0)
(44.2 1.13481e-06 0)
(44.2 3.07813e-06 0)
(44.2 4.76212e-06 0)
(44.2 6.20723e-06 0)
(44.2 7.4314e-06 0)
(44.2 8.45022e-06 0)
(44.2 9.27761e-06 0)
(44.2 9.92517e-06 0)
(44.2 1.04043e-05 0)
(44.2 1.07257e-05 0)
(44.2 1.09015e-05 0)
(44.2 1.09428e-05 0)
(44.2 1.08623e-05 0)
(44.2 1.06718e-05 0)
(44.2 1.03843e-05 0)
(44.2 1.00131e-05 0)
(44.2 9.57191e-06 0)
(44.2 9.07485e-06 0)
(44.2 8.53514e-06 0)
(44.2 7.96591e-06 0)
(44.2 7.37866e-06 0)
(44.2 6.78415e-06 0)
(44.2 6.19113e-06 0)
(44.2 5.60735e-06 0)
(44.2 5.03874e-06 0)
(44.2 4.49021e-06 0)
(44.2 3.96517e-06 0)
(44.2 3.46609e-06 0)
(44.2 2.99449e-06 0)
(44.2 2.55107e-06 0)
(44.2 2.13606e-06 0)
(44.2 1.74907e-06 0)
(44.2 1.38933e-06 0)
(44.2 1.05599e-06 0)
(44.2 7.47841e-07 0)
(44.2 4.63445e-07 0)
(44.2 2.01491e-07 0)
(44.2 3.79963e-08 0)
(44.2 -5.61744e-08 0)
(44.2 -2.69646e-07 0)
(44.2 -5.97731e-07 0)
(44.2 -9.539e-07 0)
(44.2 -1.33946e-06 0)
(44.2 -1.75513e-06 0)
(44.2 -2.20154e-06 0)
(44.2 -2.67908e-06 0)
(44.2 -3.18802e-06 0)
(44.2 -3.72818e-06 0)
(44.2 -4.2993e-06 0)
(44.2 -4.90079e-06 0)
(44.2 -5.53163e-06 0)
(44.2 -6.19026e-06 0)
(44.2 -6.87421e-06 0)
(44.2 -7.57995e-06 0)
(44.2 -8.3026e-06 0)
(44.2 -9.03574e-06 0)
(44.2 -9.77125e-06 0)
(44.2 -1.04997e-05 0)
(44.2 -1.12094e-05 0)
(44.2 -1.18879e-05 0)
(44.2 -1.25207e-05 0)
(44.2 -1.3093e-05 0)
(44.2 -1.35878e-05 0)
(44.2 -1.39888e-05 0)
(44.2 -1.42777e-05 0)
(44.2 -1.44376e-05 0)
(44.2 -1.44514e-05 0)
(44.2 -1.43031e-05 0)
(44.2 -1.39822e-05 0)
(44.2 -1.34776e-05 0)
(44.2 -1.27781e-05 0)
(44.2 -1.18689e-05 0)
(44.2 -1.07282e-05 0)
(44.2 -9.33324e-06 0)
(44.2 -7.66764e-06 0)
(44.2 -5.71706e-06 0)
(44.2 -3.47654e-06 0)
(44.2 -1.096e-06 0)
(44.2 1.13301e-06 0)
(44.2 3.07979e-06 0)
(44.2 4.76667e-06 0)
(44.2 6.2143e-06 0)
(44.2 7.44055e-06 0)
(44.2 8.46123e-06 0)
(44.2 9.29002e-06 0)
(44.2 9.93857e-06 0)
(44.2 1.04183e-05 0)
(44.2 1.07398e-05 0)
(44.2 1.09153e-05 0)
(44.2 1.09558e-05 0)
(44.2 1.08737e-05 0)
(44.2 1.0681e-05 0)
(44.2 1.03901e-05 0)
(44.2 1.00146e-05 0)
(44.2 9.56784e-06 0)
(44.2 9.06425e-06 0)
(44.2 8.51727e-06 0)
(44.2 7.94051e-06 0)
(44.2 7.34598e-06 0)
(44.2 6.74487e-06 0)
(44.2 6.14645e-06 0)
(44.2 5.55882e-06 0)
(44.2 4.98811e-06 0)
(44.2 4.43921e-06 0)
(44.2 3.91548e-06 0)
(44.2 3.41924e-06 0)
(44.2 2.95172e-06 0)
(44.2 2.51339e-06 0)
(44.2 2.10423e-06 0)
(44.2 1.72371e-06 0)
(44.2 1.37073e-06 0)
(44.2 1.04418e-06 0)
(44.2 7.42662e-07 0)
(44.2 4.64903e-07 0)
(44.2 2.09551e-07 0)
(44.2 4.36335e-08 0)
(44.2 -5.62439e-08 0)
(44.2 -2.70101e-07 0)
(44.2 -5.99246e-07 0)
(44.2 -9.56685e-07 0)
(44.2 -1.34348e-06 0)
(44.2 -1.76049e-06 0)
(44.2 -2.20835e-06 0)
(44.2 -2.68759e-06 0)
(44.2 -3.19822e-06 0)
(44.2 -3.74011e-06 0)
(44.2 -4.31296e-06 0)
(44.2 -4.91624e-06 0)
(44.2 -5.54901e-06 0)
(44.2 -6.20965e-06 0)
(44.2 -6.89567e-06 0)
(44.2 -7.60347e-06 0)
(44.2 -8.32815e-06 0)
(44.2 -9.06341e-06 0)
(44.2 -9.8011e-06 0)
(44.2 -1.05316e-05 0)
(44.2 -1.12434e-05 0)
(44.2 -1.19239e-05 0)
(44.2 -1.25584e-05 0)
(44.2 -1.31324e-05 0)
(44.2 -1.36284e-05 0)
(44.2 -1.40304e-05 0)
(44.2 -1.432e-05 0)
(44.2 -1.44802e-05 0)
(44.2 -1.44937e-05 0)
(44.2 -1.43443e-05 0)
(44.2 -1.4022e-05 0)
(44.2 -1.3515e-05 0)
(44.2 -1.28129e-05 0)
(44.2 -1.19006e-05 0)
(44.2 -1.07564e-05 0)
(44.2 -9.35769e-06 0)
(44.2 -7.68788e-06 0)
(44.2 -5.73275e-06 0)
(44.2 -3.48737e-06 0)
(44.2 -1.102e-06 0)
(44.2 1.13129e-06 0)
(44.2 3.0816e-06 0)
(44.2 4.77142e-06 0)
(44.2 6.22147e-06 0)
(44.2 7.44982e-06 0)
(44.2 8.47216e-06 0)
(44.2 9.30242e-06 0)
(44.2 9.95218e-06 0)
(44.2 1.04328e-05 0)
(44.2 1.07551e-05 0)
(44.2 1.0931e-05 0)
(44.2 1.09721e-05 0)
(44.2 1.08909e-05 0)
(44.2 1.06995e-05 0)
(44.2 1.04109e-05 0)
(44.2 1.00385e-05 0)
(44.2 9.59595e-06 0)
(44.2 9.09746e-06 0)
(44.2 8.55625e-06 0)
(44.2 7.98548e-06 0)
(44.2 7.39668e-06 0)
(44.2 6.80065e-06 0)
(44.2 6.20613e-06 0)
(44.2 5.62091e-06 0)
(44.2 5.05094e-06 0)
(44.2 4.50105e-06 0)
(44.2 3.97468e-06 0)
(44.2 3.47437e-06 0)
(44.2 3.00156e-06 0)
(44.2 2.55708e-06 0)
(44.2 2.14104e-06 0)
(44.2 1.75304e-06 0)
(44.2 1.39249e-06 0)
(44.2 1.05836e-06 0)
(44.2 7.49435e-07 0)
(44.2 4.64397e-07 0)
(44.2 2.02016e-07 0)
(44.2 3.8176e-08 0)
(44.2 -5.66091e-08 0)
(44.2 -2.71308e-07 0)
(44.2 -6.01412e-07 0)
(44.2 -9.5969e-07 0)
(44.2 -1.34731e-06 0)
(44.2 -1.76542e-06 0)
(44.2 -2.21442e-06 0)
(44.2 -2.6947e-06 0)
(44.2 -3.20658e-06 0)
(44.2 -3.74992e-06 0)
(44.2 -4.32434e-06 0)
(44.2 -4.92934e-06 0)
(44.2 -5.56395e-06 0)
(44.2 -6.22645e-06 0)
(44.2 -6.91438e-06 0)
(44.2 -7.62427e-06 0)
(44.2 -8.35122e-06 0)
(44.2 -9.08875e-06 0)
(44.2 -9.82864e-06 0)
(44.2 -1.05614e-05 0)
(44.2 -1.12752e-05 0)
(44.2 -1.19579e-05 0)
(44.2 -1.25943e-05 0)
(44.2 -1.31699e-05 0)
(44.2 -1.36674e-05 0)
(44.2 -1.40706e-05 0)
(44.2 -1.43609e-05 0)
(44.2 -1.45212e-05 0)
(44.2 -1.45344e-05 0)
(44.2 -1.43844e-05 0)
(44.2 -1.40607e-05 0)
(44.2 -1.3552e-05 0)
(44.2 -1.28474e-05 0)
(44.2 -1.19321e-05 0)
(44.2 -1.07846e-05 0)
(44.2 -9.38199e-06 0)
(44.2 -7.70806e-06 0)
(44.2 -5.74845e-06 0)
(44.2 -3.49825e-06 0)
(44.2 -1.10805e-06 0)
(44.2 1.12953e-06 0)
(44.2 3.08346e-06 0)
(44.2 4.77633e-06 0)
(44.2 6.22902e-06 0)
(44.2 7.45957e-06 0)
(44.2 8.48392e-06 0)
(44.2 9.31575e-06 0)
(44.2 9.96668e-06 0)
(44.2 1.04481e-05 0)
(44.2 1.07706e-05 0)
(44.2 1.09465e-05 0)
(44.2 1.0987e-05 0)
(44.2 1.09045e-05 0)
(44.2 1.07109e-05 0)
(44.2 1.04191e-05 0)
(44.2 1.00423e-05 0)
(44.2 9.59419e-06 0)
(44.2 9.08907e-06 0)
(44.2 8.54049e-06 0)
(44.2 7.96207e-06 0)
(44.2 7.36583e-06 0)
(44.2 6.76303e-06 0)
(44.2 6.16297e-06 0)
(44.2 5.57374e-06 0)
(44.2 5.00148e-06 0)
(44.2 4.45108e-06 0)
(44.2 3.92592e-06 0)
(44.2 3.42828e-06 0)
(44.2 2.9595e-06 0)
(44.2 2.52016e-06 0)
(44.2 2.11001e-06 0)
(44.2 1.72852e-06 0)
(44.2 1.37464e-06 0)
(44.2 1.04714e-06 0)
(44.2 7.44838e-07 0)
(44.2 4.66416e-07 0)
(44.2 2.10345e-07 0)
(44.2 4.38538e-08 0)
(44.2 -5.66497e-08 0)
(44.2 -2.71829e-07 0)
(44.2 -6.02852e-07 0)
(44.2 -9.62189e-07 0)
(44.2 -1.35107e-06 0)
(44.2 -1.77047e-06 0)
(44.2 -2.22077e-06 0)
(44.2 -2.7026e-06 0)
(44.2 -3.21619e-06 0)
(44.2 -3.76119e-06 0)
(44.2 -4.33732e-06 0)
(44.2 -4.9441e-06 0)
(44.2 -5.58053e-06 0)
(44.2 -6.24493e-06 0)
(44.2 -6.93483e-06 0)
(44.2 -7.64672e-06 0)
(44.2 -8.37563e-06 0)
(44.2 -9.11508e-06 0)
(44.2 -9.85692e-06 0)
(44.2 -1.05916e-05 0)
(44.2 -1.13074e-05 0)
(44.2 -1.19917e-05 0)
(44.2 -1.26298e-05 0)
(44.2 -1.32068e-05 0)
(44.2 -1.37055e-05 0)
(44.2 -1.41097e-05 0)
(44.2 -1.44005e-05 0)
(44.2 -1.45613e-05 0)
(44.2 -1.45744e-05 0)
(44.2 -1.44235e-05 0)
(44.2 -1.40985e-05 0)
(44.2 -1.35878e-05 0)
(44.2 -1.28809e-05 0)
(44.2 -1.1963e-05 0)