/*--------------------------------*- C++ -*----------------------------------*\
| =========                 |                                                 |
| \\      /  F ield         | OpenFOAM: The Open Source CFD Toolbox           |
|  \\    /   O peration     | Version:  5.x                                   |
|   \\  /    A nd           | Web:      www.OpenFOAM.org                      |
|    \\/     M anipulation  |                                                 |
\*---------------------------------------------------------------------------*/
FoamFile
{
    version     2.0;
    format      ascii;
    class       surfaceScalarField;
    location    "0";
    object      phi;
}
// * * * * * * * * * * * * * * * * * * * * * * * * * * * * * * * * * * * * * //

dimensions      [0 3 -1 0 0 0 0];

internalField   nonuniform List<scalar> 
303237
(
2.18971e-12
3.91509e-05
4.84945e-13
4.3066e-05
-1.36912e-12
4.73726e-05
-3.37145e-12
5.21099e-05
-5.51626e-12
5.73208e-05
-7.80421e-12
6.30529e-05
-1.02114e-11
6.93582e-05
-1.27149e-11
7.6294e-05
-1.5274e-11
8.39234e-05
-1.78417e-11
9.23158e-05
-2.03466e-11
0.000101547
-2.27032e-11
0.000111702
-2.48017e-11
0.000122872
-2.65081e-11
0.00013516
-2.76626e-11
0.000148675
-2.8056e-11
0.000163543
-2.74693e-11
0.000179897
-2.55881e-11
0.000197887
-2.21256e-11
0.000217676
-1.66265e-11
0.000239443
-8.76513e-12
0.000263388
2.08589e-12
0.000289726
1.61929e-11
0.000318699
3.43984e-11
0.000350569
5.66995e-11
0.000385626
8.41955e-11
0.000424189
1.1627e-10
0.000466607
1.54315e-10
0.000513268
1.96723e-10
0.000564595
2.45311e-10
0.000621054
2.97915e-10
0.00068316
3.57551e-10
0.000751476
4.26891e-10
0.000826623
5.10523e-10
0.000909286
6.11984e-10
0.00100021
7.33202e-10
0.00110024
8.72264e-10
0.00121026
1.01101e-09
0.00121026
1.1329e-09
0.00110024
1.23908e-09
0.00100021
1.3316e-09
0.000909286
1.41276e-09
0.000826623
1.48435e-09
0.000751476
1.54307e-09
0.00068316
1.58967e-09
0.000621054
1.61912e-09
0.000564595
1.63416e-09
0.000513268
1.63123e-09
0.000466607
1.616e-09
0.000424189
1.58487e-09
0.000385626
1.54289e-09
0.000350569
1.4878e-09
0.000318699
1.42379e-09
0.000289727
1.3503e-09
0.000263388
1.2707e-09
0.000239443
1.18565e-09
0.000217676
1.09771e-09
0.000197887
1.00802e-09
0.000179897
9.18441e-10
0.000163543
8.30042e-10
0.000148676
7.44035e-10
0.00013516
6.61182e-10
0.000122872
5.82163e-10
0.000111702
5.07381e-10
0.000101547
4.37115e-10
9.23158e-05
3.71479e-10
8.39234e-05
3.10476e-10
7.62941e-05
2.54023e-10
6.93582e-05
2.01977e-10
6.3053e-05
1.54127e-10
5.73209e-05
1.10255e-10
5.21099e-05
7.0111e-11
4.73726e-05
3.34429e-11
4.3066e-05
3.91509e-05
1.67016e-12
3.91509e-05
-7.41723e-13
4.3066e-05
-3.32268e-12
4.73726e-05
-6.08232e-12
5.21098e-05
-8.99103e-12
5.73208e-05
-1.20288e-11
6.30529e-05
-1.51642e-11
6.93582e-05
-1.83483e-11
7.6294e-05
-2.15294e-11
8.39234e-05
-2.46376e-11
9.23158e-05
-2.75988e-11
0.000101547
-3.03118e-11
0.000111702
-3.26743e-11
0.000122872
-3.45395e-11
0.00013516
-3.57616e-11
0.000148675
-3.61144e-11
0.000163543
-3.53941e-11
0.000179897
-3.326e-11
0.000197887
-2.94567e-11
0.000217676
-2.34774e-11
0.000239443
-1.50767e-11
0.000263388
-3.52858e-12
0.000289726
1.1272e-11
0.000318699
3.03418e-11
0.000350569
5.33952e-11
0.000385626
8.18196e-11
0.000424188
1.14529e-10
0.000466607
1.53253e-10
0.000513268
1.95741e-10
0.000564595
2.44105e-10
0.000621054
2.96426e-10
0.00068316
3.54975e-10
0.000751476
4.24028e-10
0.000826623
5.08655e-10
0.000909286
6.1134e-10
0.00100021
7.33383e-10
0.00110024
8.72883e-10
0.00121026
1.01179e-09
0.00121026
1.13358e-09
0.00110024
1.23988e-09
0.00100021
1.33308e-09
0.000909286
1.41518e-09
0.000826623
1.489e-09
0.000751476
1.55032e-09
0.00068316
1.59902e-09
0.000621054
1.63074e-09
0.000564595
1.64901e-09
0.000513268
1.64961e-09
0.000466607
1.63865e-09
0.000424188
1.61172e-09
0.000385626
1.57424e-09
0.000350569
1.5232e-09
0.000318699
1.46304e-09
0.000289726
1.39268e-09
0.000263388
1.3156e-09
0.000239443
1.23216e-09
0.000217676
1.145e-09
0.000197887
1.05516e-09
0.000179897
9.64557e-10
0.000163543
8.74288e-10
0.000148675
7.85643e-10
0.00013516
6.99469e-10
0.000122872
6.16538e-10
0.000111702
5.37358e-10
0.000101547
4.62303e-10
9.23158e-05
3.91582e-10
8.39234e-05
3.25292e-10
7.6294e-05
2.63431e-10
6.93582e-05
2.0592e-10
6.30529e-05
1.52629e-10
5.73208e-05
1.03368e-10
5.21099e-05
5.79527e-11
4.73726e-05
1.61599e-11
4.3066e-05
3.91509e-05
1.36463e-12
3.91509e-05
-1.46194e-12
4.3066e-05
-4.4853e-12
4.73726e-05
-7.68518e-12
5.21098e-05
-1.10457e-11
5.73208e-05
-1.45299e-11
6.30529e-05
-1.80937e-11
6.93582e-05
-2.16943e-11
7.6294e-05
-2.52664e-11
8.39234e-05
-2.87375e-11
9.23158e-05
-3.20313e-11
0.000101547
-3.5047e-11
0.000111702
-3.76815e-11
0.000122872
-3.97756e-11
0.00013516
-4.11847e-11
0.000148675
-4.16637e-11
0.000163543
-4.10143e-11
0.000179897
-3.88543e-11
0.000197887
-3.49673e-11
0.000217676
-2.87772e-11
0.000239443
-2.01299e-11
0.000263388
-8.17909e-12
0.000289726
6.99938e-12
0.000318699
2.6638e-11
0.000350569
5.01449e-11
0.000385626
7.9242e-11
0.000424188
1.12391e-10
0.000466607
1.5167e-10
0.000513268
1.94196e-10
0.000564595
2.42223e-10
0.000621054
2.94435e-10
0.00068316
3.53205e-10
0.000751476
4.22677e-10
0.000826623
5.07751e-10
0.000909286
6.11014e-10
0.00100021
7.33541e-10
0.00110024
8.73355e-10
0.00121026
1.01242e-09
0.00121026
1.13428e-09
0.00110024
1.24087e-09
0.00100021
1.33507e-09
0.000909286
1.41808e-09
0.000826623
1.4931e-09
0.000751476
1.55537e-09
0.00068316
1.60596e-09
0.000621054
1.63944e-09
0.000564595
1.66041e-09
0.000513268
1.66364e-09
0.000466607
1.6559e-09
0.000424188
1.63195e-09
0.000385626
1.5976e-09
0.000350569
1.54923e-09
0.000318699
1.49147e-09
0.000289726
1.42285e-09
0.000263388
1.34698e-09
0.000239443
1.26403e-09
0.000217676
1.17676e-09
0.000197887
1.08618e-09
0.000179897
9.94335e-10
0.000163543
9.02374e-10
0.000148675
8.11719e-10
0.00013516
7.23293e-10
0.000122872
6.37973e-10
0.000111702
5.56339e-10
0.000101547
4.78837e-10
9.23158e-05
4.05729e-10
8.39234e-05
3.37153e-10
7.6294e-05
2.73135e-10
6.93582e-05
2.13607e-10
6.30529e-05
1.58451e-10
5.73208e-05
1.07494e-10
5.21099e-05
6.05329e-11
4.73726e-05
1.73504e-11
4.3066e-05
3.91509e-05
1.14042e-12
3.91509e-05
-1.89715e-12
4.3066e-05
-5.13634e-12
4.73726e-05
-8.57351e-12
5.21098e-05
-1.21817e-11
5.73208e-05
-1.59324e-11
6.30529e-05
-1.97741e-11
6.93582e-05
-2.36561e-11
7.6294e-05
-2.75099e-11
8.39234e-05
-3.12644e-11
9.23157e-05
-3.48335e-11
0.000101547
-3.81108e-11
0.000111702
-4.09879e-11
0.000122872
-4.33031e-11
0.000135159
-4.49001e-11
0.000148675
-4.55318e-11
0.000163543
-4.49947e-11
0.000179897
-4.29008e-11
0.000197887
-3.90279e-11
0.000217676
-3.28042e-11
0.000239443
-2.40623e-11
0.000263388
-1.1978e-11
0.000289726
3.40727e-12
0.000318699
2.32656e-11
0.000350569
4.70934e-11
0.000385626
7.64696e-11
0.000424188
1.10052e-10
0.000466607
1.49585e-10
0.000513268
1.92541e-10
0.000564595
2.40384e-10
0.000621054
2.92586e-10
0.00068316
3.51549e-10
0.000751476
4.2136e-10
0.000826623
5.06856e-10
0.000909285
6.10591e-10
0.00100021
7.336e-10
0.00110024
8.73826e-10
0.00121026
1.01323e-09
0.00121026
1.13537e-09
0.00110024
1.2423e-09
0.00100021
1.33717e-09
0.000909285
1.42121e-09
0.000826623
1.49687e-09
0.000751476
1.56044e-09
0.00068316
1.61223e-09
0.000621054
1.64755e-09
0.000564595
1.67031e-09
0.000513268
1.67569e-09
0.000466607
1.67001e-09
0.000424188
1.64815e-09
0.000385626
1.61565e-09
0.000350569
1.56891e-09
0.000318699
1.5124e-09
0.000289726
1.44465e-09
0.000263388
1.36921e-09
0.000239443
1.28627e-09
0.000217676
1.19861e-09
0.000197887
1.10728e-09
0.000179897
1.01438e-09
0.000163543
9.21121e-10
0.000148675
8.28983e-10
0.00013516
7.38957e-10
0.000122872
6.51971e-10
0.000111702
5.68657e-10
0.000101547
4.89499e-10
9.23158e-05
4.14784e-10
8.39234e-05
3.44676e-10
7.6294e-05
2.79212e-10
6.93582e-05
2.18339e-10
6.30529e-05
1.61938e-10
5.73208e-05
1.09839e-10
5.21098e-05
6.1836e-11
4.73726e-05
1.77003e-11
4.3066e-05
3.91509e-05
1.0733e-12
3.91509e-05
-2.09017e-12
4.3066e-05
-5.46585e-12
4.73726e-05
-9.04957e-12
5.21098e-05
-1.28148e-11
5.73208e-05
-1.67317e-11
6.30529e-05
-2.07485e-11
6.93582e-05
-2.48139e-11
7.6294e-05
-2.88639e-11
8.39234e-05
-3.28142e-11
9.23157e-05
-3.65854e-11
0.000101547
-4.00649e-11
0.000111702
-4.31398e-11
0.000122872
-4.56429e-11
0.000135159
-4.74211e-11
0.000148675
-4.82141e-11
0.000163543
-4.78173e-11
0.000179897
-4.58393e-11
0.000197887
-4.20522e-11
0.000217676
-3.5879e-11
0.000239443
-2.71528e-11
0.000263388
-1.50453e-11
0.000289726
4.00791e-13
0.000318699
2.03569e-11
0.000350569
4.43242e-11
0.000385626
7.38656e-11
0.000424188
1.07676e-10
0.000466607
1.47438e-10
0.000513268
1.90688e-10
0.000564595
2.38598e-10
0.000621054
2.90842e-10
0.000683159
3.49908e-10
0.000751475
4.20013e-10
0.000826623
5.05884e-10
0.000909285
6.10085e-10
0.00100021
7.3359e-10
0.00110024
8.74293e-10
0.00121026
1.01413e-09
0.00121026
1.13666e-09
0.00110024
1.24399e-09
0.00100021
1.33943e-09
0.000909285
1.42429e-09
0.000826623
1.50069e-09
0.000751475
1.56528e-09
0.000683159
1.61817e-09
0.000621054
1.65481e-09
0.000564595
1.67892e-09
0.000513268
1.68572e-09
0.000466607
1.68137e-09
0.000424188
1.6607e-09
0.000385626
1.62921e-09
0.000350569
1.58318e-09
0.000318699
1.52713e-09
0.000289726
1.45952e-09
0.000263388
1.38398e-09
0.000239443
1.30068e-09
0.000217676
1.21247e-09
0.000197887
1.12042e-09
0.000179897
1.02669e-09
0.000163543
9.3253e-10
0.000148675
8.39453e-10
0.000135159
7.48465e-10
0.000122872
6.60525e-10
0.000111702
5.76266e-10
0.000101547
4.96188e-10
9.23158e-05
4.2059e-10
8.39234e-05
3.4963e-10
7.6294e-05
2.83357e-10
6.93582e-05
2.21721e-10
6.30529e-05
1.64598e-10
5.73208e-05
1.11818e-10
5.21098e-05
6.31787e-11
4.73726e-05
1.84588e-11
4.3066e-05
3.91509e-05
1.00117e-12
3.91509e-05
-2.20109e-12
4.3066e-05
-5.63816e-12
4.73726e-05
-9.27976e-12
5.21098e-05
-1.31104e-11
5.73208e-05
-1.70952e-11
6.30529e-05
-2.11929e-11
6.93582e-05
-2.53492e-11
7.6294e-05
-2.94936e-11
8.39234e-05
-3.35541e-11
9.23157e-05
-3.7439e-11
0.000101547
-4.10453e-11
0.000111702
-4.42571e-11
0.000122872
-4.69058e-11
0.000135159
-4.88343e-11
0.000148675
-4.97794e-11
0.000163543
-4.95362e-11
0.000179897
-4.77038e-11
0.000197887
-4.40543e-11
0.000217676
-3.80018e-11
0.000239443
-2.93802e-11
0.000263388
-1.7347e-11
0.000289726
-1.95417e-12
0.000318699
1.79894e-11
0.000350569
4.19692e-11
0.000385626
7.1568e-11
0.000424188
1.05466e-10
0.000466607
1.45346e-10
0.000513268
1.88777e-10
0.000564595
2.36802e-10
0.000621054
2.89112e-10
0.000683159
3.48307e-10
0.000751475
4.18633e-10
0.000826623
5.04884e-10
0.000909285
6.09526e-10
0.00100021
7.33534e-10
0.00110024
8.74747e-10
0.00121026
1.01507e-09
0.00121026
1.13804e-09
0.00110024
1.24581e-09
0.00100021
1.34175e-09
0.000909285
1.42731e-09
0.000826623
1.50436e-09
0.000751475
1.5698e-09
0.000683159
1.62353e-09
0.000621054
1.66115e-09
0.000564595
1.68623e-09
0.000513268
1.69395e-09
0.000466607
1.69044e-09
0.000424188
1.67046e-09
0.000385626
1.63949e-09
0.000350569
1.59377e-09
0.000318699
1.53785e-09
0.000289726
1.47015e-09
0.000263388
1.39432e-09
0.000239443
1.31054e-09
0.000217676
1.22171e-09
0.000197887
1.12891e-09
0.000179897
1.03436e-09
0.000163543
9.39321e-10
0.000148675
8.45361e-10
0.000135159
7.53516e-10
0.000122872
6.64767e-10
0.000111702
5.79767e-10
0.000101547
4.9903e-10
9.23158e-05
4.22852e-10
8.39234e-05
3.51403e-10
7.6294e-05
2.84714e-10
6.93582e-05
2.22733e-10
6.30529e-05
1.65326e-10
5.73208e-05
1.12318e-10
5.21098e-05
6.34986e-11
4.73725e-05
1.8618e-11
4.3066e-05
3.91509e-05
9.66649e-13
3.91509e-05
-2.29211e-12
4.3066e-05
-5.77584e-12
4.73726e-05
-9.47717e-12
5.21098e-05
-1.33678e-11
5.73208e-05
-1.74205e-11
6.30529e-05
-2.15881e-11
6.93582e-05
-2.58163e-11
7.6294e-05
-3.0043e-11
8.39234e-05
-3.41856e-11
9.23157e-05
-3.81619e-11
0.000101547
-4.18607e-11
0.000111702
-4.51696e-11
0.000122872
-4.79198e-11
0.000135159
-4.99532e-11
0.000148675
-5.10085e-11
0.000163543
-5.08753e-11
0.000179897
-4.91553e-11
0.000197887
-4.56175e-11
0.000217676
-3.96714e-11
0.000239443
-3.11508e-11
0.000263387
-1.92054e-11
0.000289726
-3.89124e-12
0.000318699
1.59984e-11
0.000350569
3.99358e-11
0.000385626
6.95308e-11
0.000424188
1.03439e-10
0.000466607
1.43388e-10
0.000513268
1.86887e-10
0.000564594
2.35005e-10
0.000621054
2.87395e-10
0.000683159
3.46694e-10
0.000751475
4.17264e-10
0.000826623
5.03856e-10
0.000909285
6.0894e-10
0.00100021
7.33438e-10
0.00110023
8.75159e-10
0.00121026
1.01598e-09
0.00121026
1.13941e-09
0.00110023
1.24764e-09
0.00100021
1.34409e-09
0.000909285
1.43021e-09
0.000826623
1.50788e-09
0.000751475
1.57393e-09
0.000683159
1.62834e-09
0.000621054
1.66662e-09
0.000564594
1.69235e-09
0.000513268
1.70066e-09
0.000466607
1.69766e-09
0.000424188
1.67806e-09
0.000385626
1.64737e-09
0.000350569
1.6018e-09
0.000318699
1.54593e-09
0.000289726
1.47816e-09
0.000263387
1.40222e-09
0.000239443
1.31826e-09
0.000217676
1.22923e-09
0.000197887
1.1362e-09
0.000179897
1.0414e-09
0.000163543
9.4608e-10
0.000148675
8.51812e-10
0.000135159
7.59615e-10
0.000122872
6.70468e-10
0.000111702
5.85025e-10
0.000101547
5.03797e-10
9.23157e-05
4.27088e-10
8.39233e-05
3.55071e-10
7.6294e-05
2.87795e-10
6.93582e-05
2.25217e-10
6.30529e-05
1.67217e-10
5.73208e-05
1.13622e-10
5.21098e-05
6.42313e-11
4.73725e-05
1.8818e-11
4.3066e-05
3.91509e-05
9.46798e-13
3.91509e-05
-2.32703e-12
4.3066e-05
-5.83623e-12
4.73725e-05
-9.56294e-12
5.21098e-05
-1.34864e-11
5.73208e-05
-1.75753e-11
6.30529e-05
-2.17808e-11
6.93581e-05
-2.60553e-11
7.6294e-05
-3.03338e-11
8.39234e-05
-3.45324e-11
9.23157e-05
-3.85749e-11
0.000101547
-4.23438e-11
0.000111702
-4.57306e-11
0.000122872
-4.85664e-11
0.000135159
-5.06931e-11
0.000148675
-5.18456e-11
0.000163543
-5.18201e-11
0.000179897
-5.02076e-11
0.000197887
-4.67826e-11
0.000217676
-4.09462e-11
0.000239443
-3.25404e-11
0.000263387
-2.06969e-11
0.000289726
-5.48664e-12
0.000318699
1.43222e-11
0.000350569
3.818e-11
0.000385626
6.77305e-11
0.000424188
1.01599e-10
0.000466607
1.41543e-10
0.000513268
1.85065e-10
0.000564594
2.33229e-10
0.000621054
2.85683e-10
0.000683159
3.4512e-10
0.000751475
4.15889e-10
0.000826623
5.02832e-10
0.000909285
6.0833e-10
0.00100021
7.33307e-10
0.00110023
8.75528e-10
0.00121026
1.01685e-09
0.00121026
1.14075e-09
0.00110023
1.24944e-09
0.00100021
1.34634e-09
0.000909285
1.43296e-09
0.000826623
1.51108e-09
0.000751475
1.57765e-09
0.000683159
1.63254e-09
0.000621054
1.67132e-09
0.000564594
1.6975e-09
0.000513268
1.7062e-09
0.000466607
1.70351e-09
0.000424188
1.68411e-09
0.000385626
1.65353e-09
0.000350569
1.60794e-09
0.000318699
1.55194e-09
0.000289726
1.48393e-09
0.000263387
1.40761e-09
0.000239443
1.32316e-09
0.000217676
1.23354e-09
0.000197887
1.13986e-09
0.000179897
1.04436e-09
0.000163543
9.48349e-10
0.000148675
8.53416e-10
0.000135159
7.60623e-10
0.000122872
6.70968e-10
0.000111702
5.85121e-10
0.000101547
5.03599e-10
9.23157e-05
4.26707e-10
8.39233e-05
3.5461e-10
7.6294e-05
2.87341e-10
6.93581e-05
2.24836e-10
6.30529e-05
1.66966e-10
5.73208e-05
1.13543e-10
5.21098e-05
6.43483e-11
4.73725e-05
1.91307e-11
4.3066e-05
3.91509e-05
9.11656e-13
3.91509e-05
-2.3813e-12
4.30659e-05
-5.91172e-12
4.73725e-05
-9.66427e-12
5.21098e-05
-1.36141e-11
5.73208e-05
-1.77354e-11
6.30529e-05
-2.19765e-11
6.93581e-05
-2.62922e-11
7.6294e-05
-3.06128e-11
8.39233e-05
-3.48619e-11
9.23157e-05
-3.89559e-11
0.000101547
-4.27844e-11
0.000111702
-4.62347e-11
0.000122872
-4.91416e-11
0.000135159
-5.13443e-11
0.000148675
-5.25795e-11
0.000163543
-5.26419e-11
0.000179897
-5.11222e-11
0.000197887
-4.77962e-11
0.000217676
-4.20598e-11
0.000239443
-3.3757e-11
0.000263387
-2.20119e-11
0.000289726
-6.90235e-12
0.000318699
1.28195e-11
0.000350569
3.65882e-11
0.000385626
6.60787e-11
0.000424188
9.98861e-11
0.000466607
1.3982e-10
0.000513268
1.83316e-10
0.000564594
2.31501e-10
0.000621054
2.84009e-10
0.000683159
3.43547e-10
0.000751475
4.14543e-10
0.000826623
5.018e-10
0.000909285
6.07703e-10
0.00100021
7.33131e-10
0.00110023
8.75828e-10
0.00121026
1.01763e-09
0.00121026
1.14199e-09
0.00110023
1.25112e-09
0.00100021
1.34846e-09
0.000909285
1.43549e-09
0.000826623
1.51404e-09
0.000751475
1.58098e-09
0.000683159
1.63627e-09
0.000621054
1.6754e-09
0.000564594
1.70191e-09
0.000513268
1.71089e-09
0.000466607
1.70844e-09
0.000424188
1.6892e-09
0.000385626
1.65873e-09
0.000350569
1.61319e-09
0.000318699
1.55722e-09
0.000289726
1.48921e-09
0.000263387
1.41292e-09
0.000239443
1.32851e-09
0.000217676
1.23896e-09
0.000197887
1.14535e-09
0.000179897
1.04993e-09
0.000163543
9.53969e-10
0.000148675
8.59041e-10
0.000135159
7.66172e-10
0.000122872
6.76354e-10
0.000111702
5.90247e-10
0.000101547
5.08365e-10
9.23157e-05
4.31021e-10
8.39233e-05
3.58392e-10
7.6294e-05
2.90525e-10
6.93581e-05
2.27386e-10
6.30529e-05
1.68854e-10
5.73208e-05
1.14767e-10
5.21098e-05
6.49179e-11
4.73725e-05
1.90841e-11
4.3066e-05
3.91509e-05
9.26563e-13
3.91509e-05
-2.39986e-12
4.30659e-05
-5.96768e-12
4.73725e-05
-9.75656e-12
5.21098e-05
-1.37493e-11
5.73208e-05
-1.79126e-11
6.30528e-05
-2.22039e-11
6.93581e-05
-2.65636e-11
7.62939e-05
-3.09322e-11
8.39233e-05
-3.52336e-11
9.23157e-05
-3.93841e-11
0.000101547
-4.32703e-11
0.000111702
-4.67831e-11
0.000122872
-4.97536e-11
0.000135159
-5.20254e-11
0.000148675
-5.33309e-11
0.000163543
-5.34677e-11
0.000179897
-5.20239e-11
0.000197887
-4.87812e-11
0.000217676
-4.31248e-11
0.000239443
-3.49116e-11
0.000263387
-2.32484e-11
0.000289726
-8.23075e-12
0.000318699
1.14143e-11
0.000350569
3.5096e-11
0.000385625
6.45237e-11
0.000424188
9.82637e-11
0.000466607
1.38154e-10
0.000513267
1.81627e-10
0.000564594
2.29812e-10
0.000621054
2.82358e-10
0.000683159
3.4202e-10
0.000751475
4.13202e-10
0.000826622
5.00776e-10
0.000909285
6.07054e-10
0.00100021
7.32909e-10
0.00110023
8.76058e-10
0.00121026
1.01831e-09
0.00121026
1.14312e-09
0.00110023
1.25267e-09
0.00100021
1.35038e-09
0.000909285
1.43778e-09
0.000826622
1.51664e-09
0.000751475
1.58393e-09
0.000683159
1.63951e-09
0.000621054
1.67896e-09
0.000564594
1.70575e-09
0.000513267
1.71497e-09
0.000466607
1.71269e-09
0.000424188
1.69355e-09
0.000385625
1.66312e-09
0.000350569
1.61752e-09
0.000318699
1.5614e-09
0.000289726
1.49311e-09
0.000263387
1.41643e-09
0.000239443
1.33151e-09
0.000217676
1.24135e-09
0.000197887
1.14705e-09
0.000179897
1.05091e-09
0.000163543
9.54236e-10
0.000148675
8.58645e-10
0.000135159
7.65213e-10
0.000122872
6.74953e-10
0.000111702
5.8854e-10
0.000101547
5.065e-10
9.23157e-05
4.29137e-10
8.39233e-05
3.56621e-10
7.6294e-05
2.88976e-10
6.93581e-05
2.26139e-10
6.30529e-05
1.67971e-10
5.73208e-05
1.1429e-10
5.21098e-05
6.48538e-11
4.73725e-05
1.94298e-11
4.3066e-05
3.91509e-05
8.64315e-13
3.91509e-05
-2.47428e-12
4.30659e-05
-6.05028e-12
4.73725e-05
-9.85175e-12
5.21098e-05
-1.38566e-11
5.73208e-05
-1.80327e-11
6.30528e-05
-2.23406e-11
6.93581e-05
-2.67237e-11
7.62939e-05
-3.11244e-11
8.39233e-05
-3.54623e-11
9.23157e-05
-3.96528e-11
0.000101547
-4.35914e-11
0.000111702
-4.71636e-11
0.000122872
-5.01987e-11
0.000135159
-5.25423e-11
0.000148675
-5.39308e-11
0.000163543
-5.4154e-11
0.000179897
-5.28044e-11
0.000197887
-4.96582e-11
0.000217675
-4.41014e-11
0.000239443
-3.59886e-11
0.000263387
-2.44225e-11
0.000289726
-9.50351e-12
0.000318699
1.00556e-11
0.000350569
3.36484e-11
0.000385625
6.30097e-11
0.000424188
9.66796e-11
0.000466607
1.36543e-10
0.000513267
1.79971e-10
0.000564594
2.28156e-10
0.000621054
2.8074e-10
0.000683159
3.40497e-10
0.000751475
4.11885e-10
0.000826622
4.99742e-10
0.000909285
6.06376e-10
0.00100021
7.32622e-10
0.00110023
8.76188e-10
0.00121026
1.01887e-09
0.00121026
1.14408e-09
0.00110023
1.25401e-09
0.00100021
1.35209e-09
0.000909285
1.4398e-09
0.000826622
1.51898e-09
0.000751475
1.58652e-09
0.000683159
1.6424e-09
0.000621054
1.68208e-09
0.000564594
1.70912e-09
0.000513267
1.71855e-09
0.000466607
1.71645e-09
0.000424188
1.69744e-09
0.000385625
1.66713e-09
0.000350569
1.6216e-09
0.000318699
1.56557e-09
0.000289726
1.49739e-09
0.000263387
1.42087e-09
0.000239443
1.33614e-09
0.000217675
1.24624e-09
0.000197887
1.15223e-09
0.000179897
1.05639e-09
0.000163543
9.59964e-10
0.000148675
8.64563e-10
0.000135159
7.71209e-10
0.000122872
6.80902e-10
0.000111702
5.94296e-10
0.000101547
5.11919e-10
9.23157e-05
4.34082e-10
8.39233e-05
3.60973e-10
7.62939e-05
2.92643e-10
6.93581e-05
2.29055e-10
6.30528e-05
1.701e-10
5.73208e-05
1.15611e-10
5.21098e-05
6.53832e-11
4.73725e-05
1.91964e-11
4.30659e-05
3.91509e-05
9.12352e-13
3.91508e-05
-2.47545e-12
4.30659e-05
-6.10534e-12
4.73725e-05
-9.96351e-12
5.21098e-05
-1.40282e-11
5.73208e-05
-1.82707e-11
6.30528e-05
-2.26438e-11
6.93581e-05
-2.70978e-11
7.62939e-05
-3.15633e-11
8.39233e-05
-3.59668e-11
9.23156e-05
-4.0226e-11
0.000101547
-4.42281e-11
0.000111702
-4.78632e-11
0.000122872
-5.09618e-11
0.000135159
-5.33693e-11
0.000148675
-5.48162e-11
0.000163543
-5.51048e-11
0.000179897
-5.38134e-11
0.000197887
-5.07345e-11
0.000217675
-4.52384e-11
0.000239443
-3.71975e-11
0.000263387
-2.56929e-11
0.000289726
-1.08484e-11
0.000318699
8.65005e-12
0.000350569
3.21708e-11
0.000385625
6.14807e-11
0.000424188
9.50914e-11
0.000466607
1.34913e-10
0.000513267
1.7832e-10
0.000564594
2.26501e-10
0.000621053
2.79123e-10
0.000683159
3.38998e-10
0.000751475
4.10564e-10
0.000826622
4.98702e-10
0.000909284
6.05661e-10
0.00100021
7.32268e-10
0.00110023
8.76217e-10
0.00121026
1.01929e-09
0.00121026
1.14487e-09
0.00110023
1.25515e-09
0.00100021
1.35353e-09
0.000909284
1.44154e-09
0.000826622
1.52093e-09
0.000751475
1.58875e-09
0.000683159
1.64485e-09
0.000621053
1.68481e-09
0.000564594
1.71208e-09
0.000513267
1.7217e-09
0.000466607
1.71977e-09
0.000424188
1.70086e-09
0.000385625
1.67057e-09
0.000350568
1.62498e-09
0.000318699
1.56877e-09
0.000289726
1.50029e-09
0.000263387
1.42333e-09
0.000239443
1.33804e-09
0.000217675
1.24744e-09
0.000197887
1.15266e-09
0.000179897
1.056e-09
0.000163543
9.58792e-10
0.000148675
8.62673e-10
0.000135159
7.68729e-10
0.000122872
6.77984e-10
0.000111702
5.91124e-10
0.000101547
5.08677e-10
9.23157e-05
4.30949e-10
8.39233e-05
3.58103e-10
7.62939e-05
2.9017e-10
6.93581e-05
2.27082e-10
6.30528e-05
1.68692e-10
5.73208e-05
1.14807e-10
5.21098e-05
6.51968e-11
4.73725e-05
1.9617e-11
4.30659e-05
3.91509e-05
8.13957e-13
3.91508e-05
-2.56427e-12
4.30659e-05
-6.18528e-12
4.73725e-05
-1.00393e-11
5.21098e-05
-1.40979e-11
5.73207e-05
-1.83413e-11
6.30528e-05
-2.27205e-11
6.93581e-05
-2.71848e-11
7.62939e-05
-3.16697e-11
8.39233e-05
-3.61045e-11
9.23156e-05
-4.04023e-11
0.000101547
-4.44569e-11
0.000111702
-4.81549e-11
0.000122872
-5.13285e-11
0.000135159
-5.38213e-11
0.000148675
-5.53646e-11
0.000163543
-5.57554e-11
0.000179897
-5.45755e-11
0.000197887
-5.16102e-11
0.000217675
-4.623e-11
0.000239443
-3.83025e-11
0.000263387
-2.69067e-11
0.000289726
-1.21658e-11
0.000318699
7.24221e-12
0.000350568
3.0676e-11
0.000385625
5.99222e-11
0.000424188
9.34708e-11
0.000466607
1.33271e-10
0.000513267
1.76644e-10
0.000564594
2.24836e-10
0.000621053
2.77503e-10
0.000683159
3.37482e-10
0.000751475
4.0924e-10
0.000826622
4.97631e-10
0.000909284
6.04892e-10
0.00100021
7.31821e-10
0.00110023
8.76113e-10
0.00121026
1.01954e-09
0.00121026
1.14545e-09
0.00110023
1.25604e-09
0.00100021
1.35472e-09
0.000909284
1.44296e-09
0.000826622
1.52263e-09
0.000751475
1.59063e-09
0.000683159
1.64698e-09
0.000621053
1.68713e-09
0.000564594
1.71462e-09
0.000513267
1.72444e-09
0.000466607
1.72268e-09
0.000424188
1.70391e-09
0.000385625
1.67375e-09
0.000350568
1.62828e-09
0.000318699
1.57224e-09
0.000289726
1.50395e-09
0.000263387
1.42727e-09
0.000239443
1.34232e-09
0.000217675
1.25216e-09
0.000197887
1.15784e-09
0.000179897
1.06167e-09
0.000163543
9.64893e-10
0.000148675
8.69123e-10
0.000135159
7.75381e-10
0.000122872
6.84674e-10
0.000111702
5.97665e-10
0.000101547
5.14876e-10
9.23157e-05
4.36631e-10
8.39233e-05
3.63117e-10
7.62939e-05
2.9439e-10
6.93581e-05
2.30422e-10
6.30528e-05
1.71099e-10
5.73207e-05
1.16259e-10
5.21098e-05
6.57084e-11
4.73725e-05
1.92191e-11
4.30659e-05
3.91508e-05
9.00613e-13
3.91508e-05
-2.55894e-12
4.30659e-05
-6.26077e-12
4.73725e-05
-1.01936e-11
5.21098e-05
-1.4347e-11
5.73207e-05
-1.86811e-11
6.30528e-05
-2.31543e-11
6.93581e-05
-2.77106e-11
7.62939e-05
-3.22857e-11
8.39233e-05
-3.68066e-11
9.23156e-05
-4.11884e-11
0.000101547
-4.53189e-11
0.000111702
-4.90884e-11
0.000122872
-5.2326e-11
0.000135159
-5.48823e-11
0.000148675
-5.6481e-11
0.000163543
-5.69305e-11
0.000179897
-5.58012e-11
0.000197887
-5.28923e-11
0.000217675
-4.75606e-11
0.000239443
-3.96934e-11
0.000263387
-2.8347e-11
0.000289726
-1.36687e-11
0.000318699
5.69201e-12
0.000350568
2.90655e-11
0.000385625
5.8272e-11
0.000424188
9.17749e-11
0.000466607
1.31545e-10
0.000513267
1.74914e-10
0.000564594
2.23117e-10
0.000621053
2.75846e-10
0.000683159
3.35951e-10
0.000751475
4.07891e-10
0.000826622
4.96531e-10
0.000909284
6.04067e-10
0.00100021
7.31284e-10
0.00110023
8.75881e-10
0.00121026
1.01962e-09
0.00121026
1.14583e-09
0.00110023
1.2567e-09
0.00100021
1.3556e-09
0.000909284
1.44408e-09
0.000826622
1.5239e-09
0.000751475
1.59214e-09
0.000683159
1.64866e-09
0.000621053
1.68905e-09
0.000564594
1.71675e-09
0.000513267
1.72676e-09
0.000466607
1.72515e-09
0.000424188
1.70647e-09
0.000385625
1.67634e-09
0.000350568
1.63079e-09
0.000318699
1.57456e-09
0.000289726
1.50594e-09
0.000263387
1.42877e-09
0.000239443
1.34319e-09
0.000217675
1.25225e-09
0.000197887
1.15708e-09
0.000179897
1.06e-09
0.000163543
9.62358e-10
0.000148675
8.65809e-10
0.000135159
7.71449e-10
0.000122872
6.80315e-10
0.000111702
5.93097e-10
0.000101547
5.10326e-10
9.23156e-05
4.3231e-10
8.39233e-05
3.59211e-10
7.62939e-05
2.91052e-10
6.93581e-05
2.27772e-10
6.30528e-05
1.69215e-10
5.73207e-05
1.15186e-10
5.21098e-05
6.54471e-11
4.73725e-05
1.97495e-11
4.30659e-05
3.91508e-05
7.64219e-13
3.91508e-05
-2.66197e-12
4.30659e-05
-6.3407e-12
4.73725e-05
-1.02628e-11
5.21098e-05
-1.43894e-11
5.73207e-05
-1.87106e-11
6.30528e-05
-2.31761e-11
6.93581e-05
-2.77339e-11
7.62939e-05
-3.23239e-11
8.39233e-05
-3.68692e-11
9.23156e-05
-4.12923e-11
0.000101547
-4.54806e-11
0.000111702
-4.93252e-11
0.000122872
-5.2654e-11
0.000135159
-5.53134e-11
0.000148675
-5.7032e-11
0.000163543
-5.76059e-11
0.000179897
-5.6614e-11
0.000197887
-5.38423e-11
0.000217675
-4.86518e-11
0.000239443
-4.09175e-11
0.000263387
-2.9699e-11
0.000289726
-1.51356e-11
0.000318699
4.12369e-12
0.000350568
2.74101e-11
0.000385625
5.65519e-11
0.000424188
9.00018e-11
0.000466606
1.29757e-10
0.000513267
1.73111e-10
0.000564594
2.21349e-10
0.000621053
2.74144e-10
0.000683159
3.34378e-10
0.000751474
4.06506e-10
0.000826622
4.95375e-10
0.000909284
6.0316e-10
0.00100021
7.30628e-10
0.00110023
8.75487e-10
0.00121026
1.01949e-09
0.00121026
1.14596e-09
0.00110023
1.25707e-09
0.00100021
1.35621e-09
0.000909284
1.44487e-09
0.000826622
1.52491e-09
0.000751474
1.59327e-09
0.000683159
1.65e-09
0.000621053
1.69055e-09
0.000564594
1.71845e-09
0.000513267
1.72863e-09
0.000466606
1.72719e-09
0.000424188
1.70865e-09
0.000385625
1.67868e-09
0.000350568
1.63329e-09
0.000318699
1.57728e-09
0.000289726
1.50895e-09
0.000263387
1.43218e-09
0.000239443
1.3471e-09
0.000217675
1.25677e-09
0.000197887
1.16224e-09
0.000179897
1.06585e-09
0.000163543
9.68818e-10
0.000148675
8.72778e-10
0.000135159
7.7875e-10
0.000122872
6.87741e-10
0.000111702
6.00415e-10
0.000101547
5.17307e-10
9.23156e-05
4.38732e-10
8.39232e-05
3.64889e-10
7.62939e-05
2.95838e-10
6.93581e-05
2.31549e-10
6.30528e-05
1.71919e-10
5.73207e-05
1.16789e-10
5.21098e-05
6.59599e-11
4.73725e-05
1.92067e-11
4.30659e-05
3.91508e-05
8.87098e-13
3.91508e-05
-2.64855e-12
4.30659e-05
-6.44462e-12
4.73725e-05
-1.04742e-11
5.21097e-05
-1.47254e-11
5.73207e-05
-1.91747e-11
6.30528e-05
-2.37614e-11
6.93581e-05
-2.84436e-11
7.62939e-05
-3.31529e-11
8.39233e-05
-3.78098e-11
9.23156e-05
-4.23359e-11
0.000101547
-4.66168e-11
0.000111702
-5.05451e-11
0.000122872
-5.39474e-11
0.000135159
-5.66744e-11
0.000148675
-5.84479e-11
0.000163543
-5.90792e-11
0.000179897
-5.81297e-11
0.000197887
-5.54075e-11
0.000217675
-5.02564e-11
0.000239443
-4.25717e-11
0.000263387
-3.13927e-11
0.000289726
-1.68831e-11
0.000318698
2.33769e-12
0.000350568
2.55745e-11
0.000385625
5.46849e-11
0.000424188
8.81032e-11
0.000466606
1.2784e-10
0.000513267
1.71212e-10
0.000564594
2.19483e-10
0.000621053
2.72373e-10
0.000683158
3.32753e-10
0.000751474
4.05074e-10
0.000826622
4.94167e-10
0.000909284
6.02178e-10
0.00100021
7.29861e-10
0.00110023
8.74944e-10
0.00121026
1.01918e-09
0.00121026
1.14587e-09
0.00110023
1.25719e-09
0.00100021
1.35649e-09
0.000909284
1.44533e-09
0.000826622
1.52546e-09
0.000751474
1.59401e-09
0.000683158
1.65086e-09
0.000621053
1.69162e-09
0.000564594
1.71968e-09
0.000513267
1.73003e-09
0.000466606
1.72872e-09
0.000424188
1.71027e-09
0.000385625
1.6803e-09
0.000350568
1.63484e-09
0.000318698
1.57862e-09
0.000289726
1.50994e-09
0.000263387
1.43264e-09
0.000239443
1.34686e-09
0.000217675
1.25567e-09
0.000197887
1.16021e-09
0.000179897
1.06282e-09
0.000163543
9.64858e-10
0.000148675
8.67986e-10
0.000135159
7.73314e-10
0.000122872
6.81889e-10
0.000111702
5.94409e-10
0.000101547
5.11403e-10
9.23156e-05
4.33179e-10
8.39232e-05
3.59908e-10
7.62939e-05
2.91606e-10
6.93581e-05
2.282e-10
6.30528e-05
1.69538e-10
5.73207e-05
1.1542e-10
5.21098e-05
6.56089e-11
4.73725e-05
1.98486e-11
4.30659e-05
3.91508e-05
7.14481e-13
3.91508e-05
-2.78098e-12
4.30659e-05
-6.529e-12
4.73725e-05
-1.05214e-11
5.21097e-05
-1.47448e-11
5.73207e-05
-1.91605e-11
6.30528e-05
-2.37301e-11
6.93581e-05
-2.84055e-11
7.62939e-05
-3.31247e-11
8.39233e-05
-3.78098e-11
9.23156e-05
-4.23817e-11
0.000101547
-4.67333e-11
0.000111702
-5.07505e-11
0.000122872
-5.42641e-11
0.000135159
-5.71162e-11
0.000148675
-5.90366e-11
0.000163543
-5.98208e-11
0.000179897
-5.90397e-11
0.000197887
-5.64819e-11
0.000217675
-5.15008e-11
0.000239443
-4.39713e-11
0.000263387
-3.29436e-11
0.000289726
-1.85624e-11
0.000318698
5.43565e-13
0.000350568
2.36892e-11
0.000385625
5.27311e-11
0.000424188
8.61031e-11
0.000466606
1.25834e-10
0.000513267
1.6921e-10
0.000564594
2.17544e-10
0.000621053
2.70528e-10
0.000683158
3.31068e-10
0.000751474
4.03579e-10
0.000826622
4.92883e-10
0.000909284