/*--------------------------------*- C++ -*----------------------------------*\
| =========                 |                                                 |
| \\      /  F ield         | OpenFOAM: The Open Source CFD Toolbox           |
|  \\    /   O peration     | Version:  5.x                                   |
|   \\  /    A nd           | Web:      www.OpenFOAM.org                      |
|    \\/     M anipulation  |                                                 |
\*---------------------------------------------------------------------------*/
FoamFile
{
    version     2.0;
    format      ascii;
    class       surfaceScalarField;
    location    "0";
    object      phi;
}
// * * * * * * * * * * * * * * * * * * * * * * * * * * * * * * * * * * * * * //

dimensions      [0 3 -1 0 0 0 0];

internalField   nonuniform List<scalar> 
262321
(
-1.74027e-12
3.78009e-05
-1.36419e-11
4.1581e-05
-2.66734e-11
4.57391e-05
-4.09304e-11
5.0313e-05
-5.64876e-11
5.53443e-05
-7.34271e-11
6.08787e-05
-9.18163e-11
6.69666e-05
-1.11714e-10
7.36632e-05
-1.33168e-10
8.10295e-05
-1.56199e-10
8.91325e-05
-1.80806e-10
9.80457e-05
-2.06968e-10
0.00010785
-2.34619e-10
0.000118635
-2.6367e-10
0.000130499
-2.93961e-10
0.000143549
-3.25303e-10
0.000157904
-3.57401e-10
0.000173694
-3.89923e-10
0.000191063
-4.22369e-10
0.00021017
-4.54248e-10
0.000231187
-4.84791e-10
0.000254305
-5.1338e-10
0.000279736
-5.38924e-10
0.00030771
-5.60816e-10
0.00033848
-5.77595e-10
0.000372328
-5.88891e-10
0.000409561
-5.92829e-10
0.000450517
-5.8948e-10
0.000495569
-5.76572e-10
0.000545126
-5.54632e-10
0.000599639
-5.21295e-10
0.000659603
-4.77088e-10
0.000725563
-4.21202e-10
0.000798119
-3.53729e-10
0.000877931
-2.7364e-10
0.000965724
-1.80255e-10
0.0010623
-7.21043e-11
0.00116853
3.66104e-11
0.00116853
1.31802e-10
0.0010623
2.14245e-10
0.000965724
2.84606e-10
0.000877931
3.43412e-10
0.000798119
3.9134e-10
0.000725563
4.29077e-10
0.000659603
4.57225e-10
0.000599639
4.76506e-10
0.000545126
4.87388e-10
0.000495569
4.90762e-10
0.000450517
4.87236e-10
0.000409561
4.7786e-10
0.000372328
4.63361e-10
0.00033848
4.44718e-10
0.00030771
4.22727e-10
0.000279736
3.9823e-10
0.000254305
3.71984e-10
0.000231187
3.44668e-10
0.00021017
3.16902e-10
0.000191063
2.89183e-10
0.000173694
2.6195e-10
0.000157904
2.35523e-10
0.000143549
2.10161e-10
0.000130499
1.86036e-10
0.000118635
1.63265e-10
0.00010785
1.41909e-10
9.80457e-05
1.21988e-10
8.91325e-05
1.03489e-10
8.10295e-05
8.63794e-11
7.36632e-05
7.06043e-11
6.69665e-05
5.60952e-11
6.08787e-05
4.2784e-11
5.53443e-05
3.05973e-11
5.0313e-05
1.94552e-11
4.57391e-05
9.28202e-12
4.1581e-05
3.78009e-05
-3.22474e-12
3.78009e-05
-1.67115e-11
4.1581e-05
-3.13979e-11
4.57391e-05
-4.73576e-11
5.0313e-05
-6.46426e-11
5.53443e-05
-8.32994e-11
6.08787e-05
-1.03356e-10
6.69665e-05
-1.24836e-10
7.36632e-05
-1.47742e-10
8.10295e-05
-1.72063e-10
8.91325e-05
-1.97772e-10
9.80457e-05
-2.24828e-10
0.00010785
-2.53165e-10
0.000118635
-2.82686e-10
0.000130499
-3.13237e-10
0.000143549
-3.44631e-10
0.000157904
-3.76562e-10
0.000173694
-4.08712e-10
0.000191063
-4.40544e-10
0.00021017
-4.71617e-10
0.000231187
-5.01095e-10
0.000254305
-5.2849e-10
0.000279736
-5.52596e-10
0.000307709
-5.73064e-10
0.00033848
-5.88219e-10
0.000372328
-5.98081e-10
0.000409561
-6.00441e-10
0.000450517
-5.95805e-10
0.000495569
-5.81531e-10
0.000545126
-5.58441e-10
0.000599639
-5.24136e-10
0.000659603
-4.78867e-10
0.000725563
-4.22431e-10
0.000798119
-3.54887e-10
0.000877931
-2.74631e-10
0.000965724
-1.80716e-10
0.0010623
-7.19257e-11
0.00116853
3.72711e-11
0.00116853
1.32759e-10
0.0010623
2.15515e-10
0.000965724
2.86256e-10
0.000877931
3.45515e-10
0.000798119
3.9405e-10
0.000725563
4.32581e-10
0.000659603
4.61651e-10
0.000599639
4.81967e-10
0.000545126
4.93948e-10
0.000495569
4.9852e-10
0.000450517
4.9623e-10
0.000409561
4.88111e-10
0.000372328
4.74847e-10
0.00033848
4.57362e-10
0.000307709
4.36424e-10
0.000279736
4.12812e-10
0.000254305
3.87261e-10
0.000231187
3.60399e-10
0.00021017
3.32834e-10
0.000191063
3.05035e-10
0.000173694
2.77448e-10
0.000157904
2.50384e-10
0.000143549
2.24129e-10
0.000130499
1.98868e-10
0.000118635
1.74752e-10
0.00010785
1.51871e-10
9.80457e-05
1.30282e-10
8.91325e-05
1.1e-10
8.10295e-05
9.10261e-11
7.36632e-05
7.33335e-11
6.69665e-05
5.68852e-11
6.08787e-05
4.16333e-11
5.53442e-05
2.75158e-11
5.0313e-05
1.44819e-11
4.5739e-05
2.46091e-12
4.15809e-05
3.78009e-05
-4.09029e-12
3.78009e-05
-1.85822e-11
4.1581e-05
-3.43184e-11
4.5739e-05
-5.13518e-11
5.0313e-05
-6.97309e-11
5.53442e-05
-8.94781e-11
6.08787e-05
-1.10597e-10
6.69665e-05
-1.33092e-10
7.36632e-05
-1.56957e-10
8.10295e-05
-1.82172e-10
8.91325e-05
-2.087e-10
9.80457e-05
-2.36503e-10
0.00010785
-2.65498e-10
0.000118635
-2.95594e-10
0.000130499
-3.26609e-10
0.000143549
-3.58348e-10
0.000157904
-3.90459e-10
0.000173694
-4.22629e-10
0.000191063
-4.54257e-10
0.00021017
-4.84947e-10
0.000231187
-5.13774e-10
0.000254305
-5.40391e-10
0.000279736
-5.63451e-10
0.000307709
-5.8286e-10
0.00033848
-5.96736e-10
0.000372328
-6.05443e-10
0.000409561
-6.06517e-10
0.000450517
-6.00779e-10
0.000495569
-5.85364e-10
0.000545126
-5.61102e-10
0.000599639
-5.25949e-10
0.000659602
-4.80162e-10
0.000725563
-4.233e-10
0.000798119
-3.55503e-10
0.000877931
-2.75045e-10
0.000965724
-1.80866e-10
0.0010623
-7.18013e-11
0.00116853
3.76438e-11
0.00116853
1.33364e-10
0.0010623
2.16313e-10
0.000965724
2.87259e-10
0.000877931
3.46869e-10
0.000798119
3.9585e-10
0.000725563
4.35016e-10
0.000659602
4.64802e-10
0.000599639
4.85951e-10
0.000545126
4.98796e-10
0.000495569
5.04251e-10
0.000450517
5.02799e-10
0.000409561
4.9542e-10
0.000372328
4.82751e-10
0.00033848
4.65674e-10
0.000307709
4.44936e-10
0.000279736
4.2131e-10
0.000254305
3.95545e-10
0.000231187
3.68298e-10
0.00021017
3.40215e-10
0.000191063
3.11807e-10
0.000173694
2.83555e-10
0.000157904
2.55815e-10
0.000143549
2.28895e-10
0.000130499
2.03009e-10
0.000118635
1.78316e-10
0.00010785
1.54918e-10
9.80457e-05
1.32877e-10
8.91325e-05
1.12208e-10
8.10295e-05
9.29058e-11
7.36632e-05
7.49418e-11
6.69665e-05
5.82742e-11
6.08787e-05
4.2844e-11
5.53442e-05
2.85976e-11
5.0313e-05
1.54624e-11
4.5739e-05
3.37106e-12
4.15809e-05
3.78009e-05
-4.51662e-12
3.78009e-05
-1.94536e-11
4.15809e-05
-3.56764e-11
4.5739e-05
-5.324e-11
5.03129e-05
-7.21806e-11
5.53442e-05
-9.25233e-11
6.08787e-05
-1.14275e-10
6.69665e-05
-1.37431e-10
7.36632e-05
-1.61968e-10
8.10295e-05
-1.87863e-10
8.91324e-05
-2.1507e-10
9.80457e-05
-2.43532e-10
0.00010785
-2.73153e-10
0.000118635
-3.03819e-10
0.000130499
-3.35336e-10
0.000143549
-3.67491e-10
0.000157904
-3.9991e-10
0.000173694
-4.32265e-10
0.000191063
-4.6394e-10
0.00021017
-4.94531e-10
0.000231187
-5.2311e-10
0.000254305
-5.49324e-10
0.000279736
-5.7185e-10
0.000307709
-5.90577e-10
0.00033848
-6.03704e-10
0.000372328
-6.11531e-10
0.000409561
-6.1176e-10
0.000450517
-6.05068e-10
0.000495569
-5.88823e-10
0.000545126
-5.63591e-10
0.000599639
-5.27671e-10
0.000659602
-4.81343e-10
0.000725563
-4.24152e-10
0.000798119
-3.56069e-10
0.000877931
-2.75406e-10
0.000965724
-1.80997e-10
0.0010623
-7.16851e-11
0.00116853
3.79915e-11
0.00116853
1.33901e-10
0.0010623
2.1699e-10
0.000965724
2.88093e-10
0.000877931
3.47965e-10
0.000798119
3.97347e-10
0.000725563
4.37011e-10
0.000659602
4.67397e-10
0.000599639
4.89188e-10
0.000545126
5.02722e-10
0.000495569
5.08861e-10
0.000450517
5.08089e-10
0.000409561
5.01342e-10
0.000372328
4.89266e-10
0.00033848
4.72705e-10
0.000307709
4.52423e-10
0.000279736
4.29162e-10
0.000254305
4.0368e-10
0.000231187
3.76607e-10
0.00021017
3.48586e-10
0.000191063
3.20119e-10
0.000173694
2.91687e-10
0.000157904
2.63648e-10
0.000143549
2.36321e-10
0.000130499
2.09927e-10
0.000118635
1.84651e-10
0.00010785
1.6061e-10
9.80457e-05
1.3788e-10
8.91324e-05
1.16501e-10
8.10295e-05
9.64851e-11
7.36632e-05
7.78098e-11
6.69665e-05
6.04476e-11
6.08787e-05
4.43485e-11
5.53442e-05
2.94592e-11
5.0313e-05
1.5719e-11
4.5739e-05
3.06132e-12
4.15809e-05
3.78009e-05
-4.70846e-12
3.78009e-05
-1.99236e-11
4.15809e-05
-3.64526e-11
4.5739e-05
-5.43512e-11
5.03129e-05
-7.36522e-11
5.53442e-05
-9.43803e-11
6.08787e-05
-1.16545e-10
6.69665e-05
-1.40137e-10
7.36632e-05
-1.65133e-10
8.10295e-05
-1.91504e-10
8.91324e-05
-2.19199e-10
9.80457e-05
-2.48149e-10
0.00010785
-2.78255e-10
0.000118635
-3.0939e-10
0.000130499
-3.41348e-10
0.000143549
-3.73895e-10
0.000157904
-4.06648e-10
0.000173694
-4.39256e-10
0.000191063
-4.71091e-10
0.00021017
-5.01735e-10
0.000231187
-5.30249e-10
0.000254305
-5.56279e-10
0.000279736
-5.785e-10
0.000307709
-5.9681e-10
0.00033848
-6.09424e-10
0.000372328
-6.16642e-10
0.000409561
-6.16213e-10
0.000450517
-6.08761e-10
0.000495569
-5.91811e-10
0.000545126
-5.65828e-10
0.000599638
-5.29275e-10
0.000659602
-4.82494e-10
0.000725563
-4.24942e-10
0.000798119
-3.56609e-10
0.000877931
-2.7572e-10
0.000965724
-1.81103e-10
0.0010623
-7.15708e-11
0.00116853
3.83032e-11
0.00116853
1.34353e-10
0.0010623
2.17567e-10
0.000965724
2.88804e-10
0.000877931
3.48909e-10
0.000798119
3.98613e-10
0.000725563
4.38677e-10
0.000659602
4.69501e-10
0.000599638
4.91741e-10
0.000545126
5.05711e-10
0.000495569
5.12219e-10
0.000450517
5.11733e-10
0.000409561
5.05141e-10
0.000372328
4.93078e-10
0.00033848
4.76376e-10
0.000307709
4.55805e-10
0.000279736
4.32125e-10
0.000254305
4.06127e-10
0.000231187
3.78478e-10
0.00021017
3.49871e-10
0.000191063
3.2084e-10
0.000173694
2.91903e-10
0.000157904
2.63439e-10
0.000143549
2.35784e-10
0.000130499
2.09166e-10
0.000118635
1.83761e-10
0.00010785
1.59683e-10
9.80457e-05
1.36994e-10
8.91324e-05
1.1572e-10
8.10295e-05
9.58582e-11
7.36632e-05
7.73783e-11
6.69665e-05
6.02352e-11
6.08787e-05
4.43743e-11
5.53442e-05
2.97336e-11
5.0313e-05
1.62359e-11
4.5739e-05
3.81673e-12
4.15809e-05
3.78009e-05
-4.88367e-12
3.78008e-05
-2.02545e-11
4.15809e-05
-3.69491e-11
4.5739e-05
-5.50332e-11
5.03129e-05
-7.45362e-11
5.53442e-05
-9.54881e-11
6.08786e-05
-1.17894e-10
6.69665e-05
-1.41748e-10
7.36632e-05
-1.67027e-10
8.10295e-05
-1.93701e-10
8.91324e-05
-2.21714e-10
9.80457e-05
-2.51e-10
0.00010785
-2.81451e-10
0.000118635
-3.12937e-10
0.000130499
-3.45238e-10
0.000143549
-3.7812e-10
0.000157904
-4.11178e-10
0.000173694
-4.44058e-10
0.000191063
-4.76108e-10
0.00021017
-5.06906e-10
0.000231187
-5.35488e-10
0.000254305
-5.61504e-10
0.000279736
-5.83604e-10
0.000307709
-6.01705e-10
0.00033848
-6.13999e-10
0.000372328
-6.20824e-10
0.000409561
-6.19913e-10
0.000450517
-6.11939e-10
0.000495569
-5.94387e-10
0.000545126
-5.6782e-10
0.000599638
-5.30749e-10
0.000659602
-4.83528e-10
0.000725562
-4.25673e-10
0.000798119
-3.57077e-10
0.000877931
-2.75998e-10
0.000965724
-1.81193e-10
0.0010623
-7.14716e-11
0.00116853
3.85646e-11
0.00116853
1.34719e-10
0.0010623
2.18029e-10
0.000965724
2.89402e-10
0.000877931
3.49695e-10
0.000798119
3.99667e-10
0.000725562
4.40027e-10
0.000659602
4.7119e-10
0.000599638
4.93759e-10
0.000545126
5.08053e-10
0.000495569
5.14851e-10
0.000450517
5.14638e-10
0.000409561
5.08286e-10
0.000372328
4.96459e-10
0.00033848
4.7998e-10
0.000307709
4.59641e-10
0.000279736
4.36188e-10
0.000254305
4.10413e-10
0.000231187
3.82962e-10
0.00021017
3.54514e-10
0.000191063
3.25579e-10
0.000173694
2.96664e-10
0.000157904
2.6814e-10
0.000143549
2.40334e-10
0.000130499
2.13482e-10
0.000118635
1.87771e-10
0.00010785
1.63318e-10
9.80456e-05
1.40209e-10
8.91324e-05
1.18475e-10
8.10295e-05
9.81327e-11
7.36632e-05
7.9164e-11
6.69665e-05
6.15322e-11
6.08787e-05
4.5186e-11
5.53442e-05
3.00737e-11
5.0313e-05
1.61308e-11
4.5739e-05
3.28962e-12
4.15809e-05
3.78009e-05
-4.96716e-12
3.78008e-05
-2.04697e-11
4.15809e-05
-3.73097e-11
4.5739e-05
-5.55405e-11
5.03129e-05
-7.52082e-11
5.53442e-05
-9.63382e-11
6.08786e-05
-1.18938e-10
6.69665e-05
-1.42994e-10
7.36631e-05
-1.68486e-10
8.10295e-05
-1.95382e-10
8.91324e-05
-2.23629e-10
9.80457e-05
-2.53157e-10
0.00010785
-2.83855e-10
0.000118635
-3.15589e-10
0.000130499
-3.48137e-10
0.000143549
-3.81257e-10
0.000157904
-4.1454e-10
0.000173694
-4.47624e-10
0.000191063
-4.79848e-10
0.00021017
-5.10782e-10
0.000231187
-5.39451e-10
0.000254305
-5.65497e-10
0.000279736
-5.87558e-10
0.000307709
-6.05552e-10
0.00033848
-6.17659e-10
0.000372328
-6.24225e-10
0.000409561
-6.22981e-10
0.000450517
-6.14598e-10
0.000495569
-5.96615e-10
0.000545126
-5.69574e-10
0.000599638
-5.32075e-10
0.000659602
-4.84507e-10
0.000725562
-4.26329e-10
0.000798119
-3.57513e-10
0.00087793
-2.76236e-10
0.000965723
-1.8127e-10
0.0010623
-7.13948e-11
0.00116853
3.87717e-11
0.00116853
1.35019e-10
0.0010623
2.18419e-10
0.000965723
2.89911e-10
0.00087793
3.50371e-10
0.000798119
4.00532e-10
0.000725562
4.41114e-10
0.000659602
4.72487e-10
0.000599638
4.95247e-10
0.000545126
5.09697e-10
0.000495569
5.16583e-10
0.000450517
5.16387e-10
0.000409561
5.09955e-10
0.000372328
4.97955e-10
0.00033848
4.81201e-10
0.000307709
4.605e-10
0.000279736
4.36611e-10
0.000254305
4.10359e-10
0.000231187
3.82415e-10
0.00021017
3.53495e-10
0.000191063
3.24141e-10
0.000173694
2.94884e-10
0.000157903
2.66109e-10
0.000143549
2.38155e-10
0.000130499
2.11254e-10
0.000118635
1.85589e-10
0.00010785
1.61264e-10
9.80456e-05
1.38353e-10
8.91324e-05
1.16871e-10
8.10295e-05
9.682e-11
7.36632e-05
7.81673e-11
6.69665e-05
6.0868e-11
6.08786e-05
4.4861e-11
5.53442e-05
3.00871e-11
5.03129e-05
1.64782e-11
4.5739e-05
3.95174e-12
4.15809e-05
3.78009e-05
-5.06018e-12
3.78008e-05
-2.06156e-11
4.15809e-05
-3.75184e-11
4.5739e-05
-5.58301e-11
5.03129e-05
-7.55784e-11
5.53442e-05
-9.67999e-11
6.08786e-05
-1.195e-10
6.69665e-05
-1.43669e-10
7.36631e-05
-1.69286e-10
8.10295e-05
-1.96321e-10
8.91324e-05
-2.24719e-10
9.80456e-05
-2.54411e-10
0.00010785
-2.85284e-10
0.000118635
-3.17204e-10
0.000130499
-3.49945e-10
0.000143549
-3.83263e-10
0.000157903
-4.16742e-10
0.000173694
-4.50018e-10
0.000191063
-4.82416e-10
0.00021017
-5.13506e-10
0.000231186
-5.42293e-10
0.000254305
-5.68423e-10
0.000279736
-5.9051e-10
0.000307709
-6.08484e-10
0.00033848
-6.20499e-10
0.000372328
-6.26922e-10
0.000409561
-6.25459e-10
0.000450517
-6.16829e-10
0.000495569
-5.98507e-10
0.000545126
-5.71121e-10
0.000599638
-5.33267e-10
0.000659602
-4.85356e-10
0.000725562
-4.26935e-10
0.000798118
-3.57889e-10
0.00087793
-2.76455e-10
0.000965723
-1.81347e-10
0.0010623
-7.13413e-11
0.00116853
3.89352e-11
0.00116853
1.35265e-10
0.0010623
2.18744e-10
0.000965723
2.90341e-10
0.00087793
3.50914e-10
0.000798118
4.01228e-10
0.000725562
4.41947e-10
0.000659602
4.73476e-10
0.000599638
4.96364e-10
0.000545126
5.10933e-10
0.000495569
5.17917e-10
0.000450517
5.17822e-10
0.000409561
5.11496e-10
0.000372328
4.99634e-10
0.00033848
4.83049e-10
0.000307709
4.62562e-10
0.000279736
4.38924e-10
0.000254305
4.12946e-10
0.000231186
3.85279e-10
0.00021017
3.56612e-10
0.000191063
3.27462e-10
0.000173694
2.98342e-10
0.000157903
2.69622e-10
0.000143549
2.41637e-10
0.000130499
2.14618e-10
0.000118635
1.88756e-10
0.00010785
1.64167e-10
9.80456e-05
1.40933e-10
8.91324e-05
1.19092e-10
8.10295e-05
9.86497e-11
7.36631e-05
7.95929e-11
6.69665e-05
6.18799e-11
6.08786e-05
4.54642e-11
5.53442e-05
3.02914e-11
5.03129e-05
1.62917e-11
4.5739e-05
3.39883e-12
4.15809e-05
3.78009e-05
-5.09525e-12
3.78008e-05
-2.07144e-11
4.15809e-05
-3.76871e-11
4.5739e-05
-5.60663e-11
5.03129e-05
-7.58903e-11
5.53442e-05
-9.71934e-11
6.08786e-05
-1.19979e-10
6.69665e-05
-1.44244e-10
7.36631e-05
-1.69964e-10
8.10294e-05
-1.97105e-10
8.91324e-05
-2.25616e-10
9.80456e-05
-2.55422e-10
0.00010785
-2.86418e-10
0.000118635
-3.18466e-10
0.000130499
-3.51338e-10
0.000143549
-3.84789e-10
0.000157903
-4.18402e-10
0.000173694
-4.51806e-10
0.000191063
-4.84329e-10
0.00021017
-5.15532e-10
0.000231186
-5.44415e-10
0.000254305
-5.70619e-10
0.000279736
-5.92749e-10
0.000307709
-6.10732e-10
0.00033848
-6.2271e-10
0.000372328
-6.29053e-10
0.000409561
-6.27457e-10
0.000450517
-6.1863e-10
0.000495569
-6.00093e-10
0.000545126
-5.72438e-10
0.000599638
-5.34305e-10
0.000659602
-4.86156e-10
0.000725562
-4.27473e-10
0.000798118
-3.58252e-10
0.00087793
-2.76652e-10
0.000965723
-1.81421e-10
0.0010623
-7.13085e-11
0.00116853
3.90588e-11
0.00116853
1.35463e-10
0.0010623
2.19019e-10
0.000965723
2.90697e-10
0.00087793
3.51373e-10
0.000798118
4.01771e-10
0.000725562
4.42589e-10
0.000659602
4.74181e-10
0.000599638
4.97116e-10
0.000545126
5.11701e-10
0.000495569
5.18653e-10
0.000450517
5.18481e-10
0.000409561
5.12009e-10
0.000372328
4.99938e-10
0.00033848
4.83071e-10
0.000307709
4.62245e-10
0.000279736
4.38211e-10
0.000254305
4.11813e-10
0.000231186
3.83723e-10
0.00021017
3.54663e-10
0.000191063
3.25175e-10
0.000173694
2.95795e-10
0.000157903
2.66905e-10
0.000143549
2.38849e-10
0.000130499
2.11857e-10
0.000118635
1.86108e-10
0.00010785
1.61709e-10
9.80456e-05
1.38731e-10
8.91324e-05
1.17193e-10
8.10295e-05
9.70921e-11
7.36631e-05
7.83958e-11
6.69665e-05
6.10573e-11
6.08786e-05
4.50199e-11
5.53442e-05
3.02123e-11
5.03129e-05
1.65762e-11
4.5739e-05
4.02654e-12
4.15809e-05
3.78008e-05
-5.14657e-12
3.78008e-05
-2.07834e-11
4.15809e-05
-3.7776e-11
4.5739e-05
-5.618e-11
5.03129e-05
-7.60378e-11
5.53442e-05
-9.73754e-11
6.08786e-05
-1.20198e-10
6.69665e-05
-1.44505e-10
7.36631e-05
-1.70275e-10
8.10294e-05
-1.97475e-10
8.91324e-05
-2.26052e-10
9.80456e-05
-2.55938e-10
0.00010785
-2.87018e-10
0.000118635
-3.19162e-10
0.000130499
-3.52134e-10
0.000143549
-3.85695e-10
0.000157903
-4.19422e-10
0.000173694
-4.52946e-10
0.000191063
-4.85584e-10
0.000210169
-5.16901e-10
0.000231186
-5.45883e-10
0.000254305
-5.72178e-10
0.000279736
-5.94371e-10
0.000307709
-6.12397e-10
0.00033848
-6.24376e-10
0.000372328
-6.30693e-10
0.000409561
-6.2902e-10
0.000450517
-6.20103e-10
0.000495569
-6.01393e-10
0.000545126
-5.73555e-10
0.000599638
-5.35207e-10
0.000659602
-4.86815e-10
0.000725562
-4.27962e-10
0.000798118
-3.58559e-10
0.00087793
-2.76839e-10
0.000965723
-1.81499e-10
0.0010623
-7.12933e-11
0.00116852
3.91539e-11
0.00116852
1.35623e-10
0.0010623
2.19237e-10
0.000965723
2.90983e-10
0.00087793
3.51708e-10
0.000798118
4.02181e-10
0.000725562
4.43037e-10
0.000659602
4.74686e-10
0.000599638
4.9765e-10
0.000545126
5.12267e-10
0.000495569
5.19247e-10
0.000450517
5.19125e-10
0.000409561
5.12731e-10
0.000372328
5.00788e-10
0.00033848
4.84102e-10
0.000307709
4.63512e-10
0.000279736
4.39766e-10
0.000254305
4.13684e-10
0.000231186
3.85918e-10
0.000210169
3.57163e-10
0.000191063
3.27933e-10
0.000173694
2.98742e-10
0.000157903
2.6996e-10
0.000143549
2.41923e-10
0.000130499
2.14861e-10
0.000118635
1.88961e-10
0.00010785
1.64341e-10
9.80456e-05
1.41081e-10
8.91324e-05
1.19217e-10
8.10294e-05
9.87572e-11
7.36631e-05
7.96833e-11
6.69665e-05
6.19574e-11
6.08786e-05
4.55334e-11
5.53442e-05
3.03481e-11
5.03129e-05
1.6346e-11
4.5739e-05
3.44903e-12
4.15809e-05
3.78008e-05
-5.15854e-12
3.78008e-05
-2.08192e-11
4.15809e-05
-3.7847e-11
4.5739e-05
-5.62803e-11
5.03129e-05
-7.61746e-11
5.53442e-05
-9.75522e-11
6.08786e-05
-1.2042e-10
6.69665e-05
-1.44774e-10
7.36631e-05
-1.7059e-10
8.10294e-05
-1.97844e-10
8.91324e-05
-2.26472e-10
9.80456e-05
-2.56414e-10
0.00010785
-2.87555e-10
0.000118635
-3.1976e-10
0.000130499
-3.52799e-10
0.000143549
-3.86428e-10
0.000157903
-4.20226e-10
0.000173694
-4.53822e-10
0.000191063
-4.86535e-10
0.000210169
-5.17924e-10
0.000231186
-5.46978e-10
0.000254305
-5.73337e-10
0.000279736
-5.95584e-10
0.000307709
-6.13651e-10
0.00033848
-6.25649e-10
0.000372328
-6.31962e-10
0.000409561
-6.3025e-10
0.000450517
-6.21248e-10
0.000495569
-6.02447e-10
0.000545125
-5.74469e-10
0.000599638
-5.35958e-10
0.000659602
-4.87425e-10
0.000725562
-4.28381e-10
0.000798118
-3.58854e-10
0.00087793
-2.77006e-10
0.000965723
-1.81575e-10
0.0010623
-7.12932e-11
0.00116852
3.92192e-11
0.00116852
1.35744e-10
0.0010623
2.19415e-10
0.000965723
2.91204e-10
0.00087793
3.51987e-10
0.000798118
4.02475e-10
0.000725562
4.43363e-10
0.000659602
4.75003e-10
0.000599638
4.97951e-10
0.000545125
5.12532e-10
0.000495569
5.19443e-10
0.000450517
5.1922e-10
0.000409561
5.12673e-10
0.000372328
5.00529e-10
0.00033848
4.83578e-10
0.000307709
4.62675e-10
0.000279736
4.38564e-10
0.000254305
4.12102e-10
0.000231186
3.83951e-10
0.000210169
3.54843e-10
0.000191063
3.25313e-10
0.000173694
2.95899e-10
0.000157903
2.66982e-10
0.000143549
2.38905e-10
0.000130499
2.11895e-10
0.000118635
1.86134e-10
0.00010785
1.61726e-10
9.80456e-05
1.38743e-10
8.91324e-05
1.17201e-10
8.10294e-05
9.70995e-11
7.36631e-05
7.84022e-11
6.69665e-05
6.10657e-11
6.08786e-05
4.50289e-11
5.53442e-05
3.02327e-11
5.03129e-05
1.66008e-11
4.5739e-05
4.05832e-12
4.15809e-05
3.78008e-05
-5.18519e-12
3.78008e-05
-2.08572e-11
4.15809e-05
-3.78799e-11
4.5739e-05
-5.63238e-11
5.03129e-05
-7.62244e-11
5.53442e-05
-9.76068e-11
6.08786e-05
-1.20485e-10
6.69665e-05
-1.44853e-10
7.36631e-05
-1.70689e-10
8.10294e-05
-1.97962e-10
8.91324e-05
-2.26621e-10
9.80456e-05
-2.56595e-10
0.00010785
-2.87775e-10
0.000118635
-3.20027e-10
0.000130499
-3.53118e-10
0.000143549
-3.86806e-10
0.000157903
-4.20666e-10
0.000173694
-4.54333e-10
0.000191063
-4.87115e-10
0.000210169
-5.1858e-10
0.000231186
-5.47702e-10
0.000254305
-5.74133e-10
0.000279736
-5.96436e-10
0.000307709
-6.14555e-10
0.00033848
-6.2658e-10
0.000372328
-6.32912e-10
0.000409561
-6.31185e-10
0.000450517
-6.22169e-10
0.000495569
-6.03284e-10
0.000545125
-5.75216e-10
0.000599638
-5.36586e-10
0.000659602
-4.87891e-10
0.000725562
-4.28747e-10
0.000798118
-3.59089e-10
0.00087793
-2.7716e-10
0.000965723
-1.81652e-10
0.0010623
-7.1303e-11
0.00116852
3.92664e-11
0.00116852
1.35838e-10
0.0010623
2.19541e-10
0.000965723
2.91368e-10
0.00087793
3.52154e-10
0.000798118
4.02673e-10
0.000725562
4.43548e-10
0.000659602
4.75201e-10
0.000599638
4.98141e-10
0.000545125
5.12724e-10
0.000495569
5.19646e-10
0.000450517
5.19466e-10
0.000409561
5.13001e-10
0.000372328
5.00994e-10
0.00033848
4.84241e-10
0.000307709
4.63596e-10
0.000279736
4.39799e-10
0.000254305
4.13678e-10
0.000231186
3.85879e-10
0.000210169
3.57099e-10
0.000191063
3.27853e-10
0.000173694
2.98653e-10
0.000157903
2.69867e-10
0.000143549
2.41828e-10
0.000130499
2.14768e-10
0.000118635
1.88872e-10
0.00010785
1.64261e-10
9.80456e-05
1.41009e-10
8.91323e-05
1.19155e-10
8.10294e-05
9.8708e-11
7.36631e-05
7.96432e-11
6.69664e-05
6.19319e-11
6.08786e-05
4.55199e-11
5.53442e-05
3.03508e-11
5.03129e-05
1.63557e-11
4.5739e-05
3.47278e-12
4.15809e-05
3.78008e-05
-5.18472e-12
3.78008e-05
-2.08725e-11
4.15809e-05
-3.7919e-11
4.5739e-05
-5.63824e-11
5.03129e-05
-7.63007e-11
5.53442e-05
-9.77023e-11
6.08786e-05
-1.20601e-10
6.69664e-05
-1.44993e-10
7.36631e-05
-1.70852e-10
8.10294e-05
-1.9815e-10
8.91323e-05
-2.26835e-10
9.80456e-05
-2.56835e-10
0.00010785
-2.88042e-10
0.000118635
-3.20322e-10
0.000130499
-3.53443e-10
0.000143549
-3.87163e-10
0.000157903
-4.21057e-10
0.000173694
-4.54758e-10
0.000191063
-4.87581e-10
0.000210169
-5.19087e-10
0.000231186
-5.48253e-10
0.000254305
-5.74726e-10
0.000279735
-5.97071e-10
0.000307709
-6.15228e-10
0.00033848
-6.27283e-10
0.000372328
-6.33634e-10
0.000409561
-6.31907e-10
0.000450517
-6.22856e-10
0.000495568
-6.03941e-10
0.000545125
-5.75806e-10
0.000599638
-5.37083e-10
0.000659602
-4.8832e-10
0.000725562
-4.29041e-10
0.000798118
-3.5931e-10
0.00087793
-2.77289e-10
0.000965723
-1.8172e-10
0.00106229
-7.13204e-11
0.00116852
3.92922e-11
0.00116852
1.35901e-10
0.00106229
2.1964e-10
0.000965723
2.91482e-10
0.00087793
3.52297e-10
0.000798118
4.02793e-10
0.000725562
4.43669e-10
0.000659602
4.7528e-10
0.000599638
4.98181e-10
0.000545125
5.12714e-10
0.000495568
5.19561e-10
0.000450517
5.19281e-10
0.000409561
5.12669e-10
0.000372328
5.00474e-10
0.00033848
4.83471e-10
0.000307709
4.6253e-10
0.000279735
4.38387e-10
0.000254305
4.11905e-10
0.000231186
3.83739e-10
0.000210169
3.54627e-10
0.000191063
3.25096e-10
0.000173694
2.9569e-10
0.000157903
2.66784e-10
0.000143549
2.38721e-10
0.000130499
2.11727e-10
0.000118635
1.85986e-10
0.00010785
1.61599e-10
9.80456e-05
1.38635e-10
8.91323e-05
1.17113e-10
8.10294e-05
9.70272e-11
7.36631e-05
7.83494e-11
6.69664e-05
6.1024e-11
6.08786e-05
4.5004e-11
5.53442e-05
3.02212e-11
5.03129e-05
1.6599e-11
4.5739e-05
4.07253e-12
4.15809e-05
3.78008e-05
-5.20716e-12
3.78008e-05
-2.08839e-11
4.15809e-05
-3.79261e-11
4.5739e-05
-5.63833e-11
5.03129e-05
-7.62997e-11
5.53442e-05
-9.77018e-11
6.08786e-05
-1.206e-10
6.69664e-05
-1.44991e-10
7.36631e-05
-1.70856e-10
8.10294e-05
-1.98161e-10
8.91323e-05
-2.26852e-10
9.80456e-05
-2.56866e-10
0.00010785
-2.88091e-10
0.000118635
-3.20394e-10
0.000130499
-3.53541e-10
0.000143549
-3.87294e-10
0.000157903
-4.21222e-10
0.000173694
-4.54966e-10
0.000191063
-4.87829e-10
0.000210169
-5.19383e-10
0.000231186
-5.48591e-10
0.000254305
-5.75113e-10
0.000279735
-5.97497e-10
0.000307709
-6.15697e-10
0.00033848
-6.27779e-10
0.000372328
-6.34158e-10
0.000409561
-6.32437e-10
0.000450517
-6.23403e-10
0.000495568
-6.04446e-10
0.000545125
-5.76268e-10
0.000599638
-5.37483e-10
0.000659602
-4.8861e-10
0.000725562
-4.29285e-10
0.000798118
-3.59465e-10
0.00087793
-2.77402e-10
0.000965723
-1.81783e-10
0.00106229
-7.13396e-11
0.00116852
3.93094e-11
0.00116852
1.35946e-10
0.00106229
2.19696e-10
0.000965723
2.91554e-10
0.00087793
3.52343e-10
0.000798118
4.0285e-10
0.000725562
4.43688e-10
0.000659602
4.75299e-10
0.000599638
4.9818e-10
0.000545125
5.1271e-10
0.000495568
5.19567e-10
0.000450517
5.19335e-10
0.000409561
5.12814e-10
0.000372328
5.00768e-10
0.00033848
4.83978e-10
0.000307709
4.6331e-10
0.000279735
4.39494e-10
0.000254305
4.13366e-10
0.000231186
3.85568e-10
0.000210169
3.56793e-10
0.000191063
3.27557e-10
0.000173694
2.98372e-10
0.000157903
2.69605e-10
0.000143549
2.41589e-10
0.000130499
2.14551e-10
0.000118635
1.88681e-10
0.00010785
1.64092e-10
9.80455e-05
1.40864e-10
8.91323e-05
1.19033e-10
8.10294e-05
9.86067e-11
7.36631e-05
7.95682e-11
6.69664e-05
6.18741e-11
6.08786e-05
4.54801e-11
5.53442e-05
3.03295e-11
5.03129e-05
1.63539e-11
4.5739e-05
3.48324e-12
4.15809e-05
3.78008e-05
-5.20117e-12
3.78008e-05
-2.08928e-11
4.15809e-05
-3.79455e-11
4.5739e-05
-5.64144e-11
5.03129e-05
-7.63417e-11
5.53442e-05
-9.77582e-11
6.08786e-05
-1.20667e-10
6.69664e-05
-1.45071e-10
7.36631e-05
-1.70947e-10
8.10294e-05
-1.98263e-10
8.91323e-05
-2.26968e-10
9.80456e-05
-2.56995e-10
0.00010785
-2.88232e-10
0.000118635
-3.20546e-10
0.000130499
-3.53707e-10
0.000143548
-3.87474e-10
0.000157903
-4.21418e-10
0.000173694
-4.55176e-10
0.000191063
-4.88058e-10
0.000210169
-5.1963e-10
0.000231186
-5.48863e-10
0.000254305
-5.75407e-10
0.000279735
-5.97818e-10
0.000307709
-6.16045e-10
0.00033848
-6.28151e-10
0.000372328
-6.34549e-10
0.000409561
-6.32838e-10
0.000450517
-6.23788e-10
0.000495568
-6.04828e-10
0.000545125
-5.76619e-10
0.000599638
-5.3778e-10
0.000659601
-4.88883e-10
0.000725562
-4.29463e-10
0.000798118
-3.59609e-10
0.00087793
-2.77484e-10
0.000965722
-1.8183e-10
0.00106229
-7.13593e-11
0.00116852
3.93128e-11
0.00116852
1.35968e-10
0.00106229
2.19739e-10
0.000965722
2.91591e-10
0.00087793
3.52396e-10
0.000798118
4.02859e-10
0.000725562
4.43687e-10
0.000659601
4.75244e-10
0.000599638
4.98081e-10
0.000545125
5.12559e-10
0.000495568
5.19342e-10
0.000450517
5.19018e-10
0.000409561
5.12358e-10
0.000372328
5.00133e-10
0.00033848
4.83102e-10
0.000307709
4.62151e-10
0.000279735
4.37999e-10
0.000254305
4.11521e-10
0.000231186
3.83363e-10
0.000210169
3.54265e-10
0.000191063
3.24754e-10
0.000173694
2.9537e-10
0.000157903
2.66487e-10
0.000143548
2.38451e-10
0.000130499
2.11485e-10
0.000118635
1.8577e-10
0.00010785
1.61408e-10
9.80455e-05
1.38469e-10
8.91323e-05
1.16972e-10
8.10294e-05
9.69145e-11
7.36631e-05
7.82599e-11
6.69664e-05
6.09595e-11
6.08786e-05
4.49613e-11
5.53441e-05
3.01954e-11
5.03129e-05
1.65886e-11
4.5739e-05
4.07562e-12
4.15809e-05
3.78008e-05
-5.21473e-12
3.78008e-05
-2.08999e-11
4.15809e-05
-3.79421e-11
4.5739e-05
-5.64056e-11
5.03129e-05
-7.63255e-11
5.53442e-05
-9.77348e-11
6.08786e-05
-1.2064e-10
6.69664e-05
-1.4504e-10
7.36631e-05
-1.70912e-10
8.10294e-05
-1.9823e-10
8.91323e-05
-2.26937e-10
9.80455e-05
-2.56971e-10
0.00010785
-2.88215e-10
0.000118635
-3.20541e-10
0.000130499
-3.53716e-10
0.000143548
-3.87499e-10
0.000157903
-4.21461e-10
0.000173694
-4.55244e-10
0.000191063
-4.88147e-10
0.000210169
-5.19749e-10
0.000231186
-5.49006e-10
0.000254305
-5.75584e-10
0.000279735
-5.98017e-10
0.000307709
-6.16274e-10
0.00033848
-6.28398e-10
0.000372328
-6.34821e-10
0.000409561
-6.33118e-10
0.000450517
-6.24093e-10
0.000495568
-6.05107e-10
0.000545125
-5.76875e-10
0.000599638
-5.38004e-10
0.000659601
-4.89027e-10
0.000725561
-4.29598e-10
0.000798118
-3.59685e-10
0.000877929
-2.77546e-10
0.000965722
-1.81867e-10
0.00106229
-7.13733e-11
0.00116852
3.93174e-11
0.00116852
1.35984e-10
0.00106229
2.19748e-10
0.000965722
2.91604e-10
0.000877929
3.52365e-10
0.000798118
4.02832e-10
0.000725561
4.43611e-10
0.000659601
4.75166e-10
0.000599638
4.97982e-10
0.000545125
5.1246e-10
0.000495568
5.19259e-10
0.000450517
5.1899e-10
0.000409561
5.12428e-10
0.000372328
5.00361e-10
0.00033848
4.83551e-10
0.000307709
4.6288e-10
0.000279735
4.39064e-10
0.000254305
4.12947e-10
0.000231186
3.85161e-10
0.000210169
3.56408e-10
0.000191063
3.27195e-10
0.000173694
2.98036e-10
0.000157903
2.69297e-10
0.000143548
2.41308e-10
0.000130499
2.143e-10
0.000118635
1.88457e-10
0.00010785
1.63897e-10
9.80455e-05
1.40696e-10
8.91323e-05
1.18894e-10
8.10294e-05
9.84931e-11
7.36631e-05
7.94744e-11
6.69664e-05
6.18039e-11
6.08786e-05
4.54312e-11
5.53441e-05
3.02975e-11
5.03129e-05
1.63379e-11
4.5739e-05
3.48278e-12
4.15809e-05
3.78008e-05
-5.21005e-12
3.78008e-05
-2.09042e-11
4.15809e-05
-3.79527e-11
4.5739e-05
-5.64215e-11
5.03129e-05
-7.63539e-11
5.53441e-05
-9.77718e-11
6.08786e-05
-1.20687e-10
6.69664e-05
-1.45096e-10
7.36631e-05
-1.70975e-10
8.10294e-05
-1.983e-10
8.91323e-05
-2.27012e-10
9.80455e-05
-2.57052e-10
0.00010785
-2.88303e-10
0.000118635
-3.20635e-10
0.000130499
-3.53813e-10
0.000143548
-3.876e-10
0.000157903
-4.21568e-10
0.000173694
-4.55354e-10
0.000191063
-4.88265e-10
0.000210169
-5.19871e-10
0.000231186
-5.49139e-10
0.000254305
-5.75726e-10
0.000279735
-5.98173e-10
0.000307709
-6.16445e-10
0.00033848
-6.28583e-10
0.000372328
-6.3502e-10
0.00040956
-6.33324e-10
0.000450517