/*--------------------------------*- C++ -*----------------------------------*\
| =========                 |                                                 |
| \\      /  F ield         | OpenFOAM: The Open Source CFD Toolbox           |
|  \\    /   O peration     | Version:  5.x                                   |
|   \\  /    A nd           | Web:      www.OpenFOAM.org                      |
|    \\/     M anipulation  |                                                 |
\*---------------------------------------------------------------------------*/
FoamFile
{
    version     2.0;
    format      ascii;
    class       volVectorField;
    location    "0";
    object      U;
}
// * * * * * * * * * * * * * * * * * * * * * * * * * * * * * * * * * * * * * //

dimensions      [0 1 -1 0 0 0 0];

internalField   nonuniform List<vector> 
131948
(
(44.2 -5.39485e-08 0)
(44.2 -4.76849e-07 0)
(44.2 -1.24978e-06 0)
(44.2 -2.09572e-06 0)
(44.2 -3.01997e-06 0)
(44.2 -4.02737e-06 0)
(44.2 -5.12256e-06 0)
(44.2 -6.30946e-06 0)
(44.2 -7.59136e-06 0)
(44.2 -8.97039e-06 0)
(44.2 -1.04472e-05 0)
(44.2 -1.2021e-05 0)
(44.2 -1.36892e-05 0)
(44.2 -1.5447e-05 0)
(44.2 -1.72866e-05 0)
(44.2 -1.91972e-05 0)
(44.2 -2.11639e-05 0)
(44.2 -2.31671e-05 0)
(44.2 -2.51811e-05 0)
(44.2 -2.71752e-05 0)
(44.2 -2.91103e-05 0)
(44.2 -3.09434e-05 0)
(44.2 -3.26215e-05 0)
(44.2 -3.4092e-05 0)
(44.2 -3.52908e-05 0)
(44.2 -3.61612e-05 0)
(44.2 -3.66334e-05 0)
(44.2 -3.66516e-05 0)
(44.2 -3.61477e-05 0)
(44.2 -3.50674e-05 0)
(44.2 -3.33538e-05 0)
(44.2 -3.09499e-05 0)
(44.2 -2.7847e-05 0)
(44.2 -2.40229e-05 0)
(44.2 -1.94485e-05 0)
(44.2 -1.40708e-05 0)
(44.2 -7.82314e-06 0)
(44.2 -1.10031e-06 0)
(44.2 5.2208e-06 0)
(44.2 1.07275e-05 0)
(44.2 1.54644e-05 0)
(44.2 1.94686e-05 0)
(44.2 2.27774e-05 0)
(44.2 2.5433e-05 0)
(44.2 2.74754e-05 0)
(44.2 2.89457e-05 0)
(44.2 2.98808e-05 0)
(44.2 3.03227e-05 0)
(44.2 3.0318e-05 0)
(44.2 2.99181e-05 0)
(44.2 2.91779e-05 0)
(44.2 2.81505e-05 0)
(44.2 2.68908e-05 0)
(44.2 2.54497e-05 0)
(44.2 2.38767e-05 0)
(44.2 2.22162e-05 0)
(44.2 2.05087e-05 0)
(44.2 1.87887e-05 0)
(44.2 1.70852e-05 0)
(44.2 1.54217e-05 0)
(44.2 1.38162e-05 0)
(44.2 1.22821e-05 0)
(44.2 1.08284e-05 0)
(44.2 9.46041e-06 0)
(44.2 8.18083e-06 0)
(44.2 6.9898e-06 0)
(44.2 5.88592e-06 0)
(44.2 4.86651e-06 0)
(44.2 3.92769e-06 0)
(44.2 3.06526e-06 0)
(44.2 2.27482e-06 0)
(44.2 1.55163e-06 0)
(44.2 8.90855e-07 0)
(44.2 2.87743e-07 0)
(44.2 -9.99673e-08 0)
(44.2 -6.18024e-07 0)
(44.2 -1.49139e-06 0)
(44.2 -2.44142e-06 0)
(44.2 -3.47201e-06 0)
(44.2 -4.58621e-06 0)
(44.2 -5.78631e-06 0)
(44.2 -7.07397e-06 0)
(44.2 -8.44996e-06 0)
(44.2 -9.91398e-06 0)
(44.2 -1.14649e-05 0)
(44.2 -1.31006e-05 0)
(44.2 -1.48178e-05 0)
(44.2 -1.66114e-05 0)
(44.2 -1.84737e-05 0)
(44.2 -2.0394e-05 0)
(44.2 -2.2357e-05 0)
(44.2 -2.43435e-05 0)
(44.2 -2.6327e-05 0)
(44.2 -2.8277e-05 0)
(44.2 -3.01541e-05 0)
(44.2 -3.19172e-05 0)
(44.2 -3.35137e-05 0)
(44.2 -3.48955e-05 0)
(44.2 -3.59998e-05 0)
(44.2 -3.67754e-05 0)
(44.2 -3.71543e-05 0)
(44.2 -3.70837e-05 0)
(44.2 -3.64975e-05 0)
(44.2 -3.53392e-05 0)
(44.2 -3.356e-05 0)
(44.2 -3.10932e-05 0)
(44.2 -2.79403e-05 0)
(44.2 -2.40969e-05 0)
(44.2 -1.95151e-05 0)
(44.2 -1.41158e-05 0)
(44.2 -7.83191e-06 0)
(44.2 -1.07429e-06 0)
(44.2 5.27093e-06 0)
(44.2 1.07965e-05 0)
(44.2 1.55549e-05 0)
(44.2 1.95849e-05 0)
(44.2 2.29266e-05 0)
(44.2 2.56256e-05 0)
(44.2 2.77213e-05 0)
(44.2 2.92522e-05 0)
(44.2 3.02534e-05 0)
(44.2 3.07666e-05 0)
(44.2 3.08373e-05 0)
(44.2 3.05146e-05 0)
(44.2 2.98518e-05 0)
(44.2 2.88985e-05 0)
(44.2 2.77074e-05 0)
(44.2 2.63264e-05 0)
(44.2 2.48023e-05 0)
(44.2 2.31775e-05 0)
(44.2 2.14903e-05 0)
(44.2 1.9774e-05 0)
(44.2 1.8057e-05 0)
(44.2 1.63628e-05 0)
(44.2 1.47099e-05 0)
(44.2 1.31129e-05 0)
(44.2 1.15822e-05 0)
(44.2 1.01253e-05 0)
(44.2 8.74676e-06 0)
(44.2 7.44875e-06 0)
(44.2 6.23181e-06 0)
(44.2 5.09516e-06 0)
(44.2 4.03679e-06 0)
(44.2 3.05408e-06 0)
(44.2 2.14363e-06 0)
(44.2 1.30193e-06 0)
(44.2 5.25228e-07 0)
(44.2 7.62884e-08 0)
(44.2 -1.26799e-07 0)
(44.2 -7.02849e-07 0)
(44.2 -1.63992e-06 0)
(44.2 -2.65578e-06 0)
(44.2 -3.75357e-06 0)
(44.2 -4.93549e-06 0)
(44.2 -6.20235e-06 0)
(44.2 -7.55439e-06 0)
(44.2 -8.99155e-06 0)
(44.2 -1.0513e-05 0)
(44.2 -1.21171e-05 0)
(44.2 -1.38013e-05 0)
(44.2 -1.55621e-05 0)
(44.2 -1.73939e-05 0)
(44.2 -1.92883e-05 0)
(44.2 -2.12337e-05 0)
(44.2 -2.32131e-05 0)
(44.2 -2.52058e-05 0)
(44.2 -2.71835e-05 0)
(44.2 -2.91154e-05 0)
(44.2 -3.09604e-05 0)
(44.2 -3.26792e-05 0)
(44.2 -3.42192e-05 0)
(44.2 -3.55357e-05 0)
(44.2 -3.65675e-05 0)
(44.2 -3.72676e-05 0)
(44.2 -3.75709e-05 0)
(44.2 -3.74263e-05 0)
(44.2 -3.67705e-05 0)
(44.2 -3.55405e-05 0)
(44.2 -3.36986e-05 0)
(44.2 -3.11895e-05 0)
(44.2 -2.80074e-05 0)
(44.2 -2.41429e-05 0)
(44.2 -1.9547e-05 0)
(44.2 -1.41333e-05 0)
(44.2 -7.8327e-06 0)
(44.2 -1.05889e-06 0)
(44.2 5.30126e-06 0)
(44.2 1.084e-05 0)
(44.2 1.56108e-05 0)
(44.2 1.9658e-05 0)
(44.2 2.30243e-05 0)
(44.2 2.57569e-05 0)
(44.2 2.78944e-05 0)
(44.2 2.94734e-05 0)
(44.2 3.05272e-05 0)
(44.2 3.10945e-05 0)
(44.2 3.12186e-05 0)
(44.2 3.09449e-05 0)
(44.2 3.03234e-05 0)
(44.2 2.94012e-05 0)
(44.2 2.8229e-05 0)
(44.2 2.68537e-05 0)
(44.2 2.53225e-05 0)
(44.2 2.36792e-05 0)
(44.2 2.19639e-05 0)
(44.2 2.02127e-05 0)
(44.2 1.84562e-05 0)
(44.2 1.67205e-05 0)
(44.2 1.5026e-05 0)
(44.2 1.3389e-05 0)
(44.2 1.18211e-05 0)
(44.2 1.03303e-05 0)
(44.2 8.92168e-06 0)
(44.2 7.59766e-06 0)
(44.2 6.35855e-06 0)
(44.2 5.20329e-06 0)
(44.2 4.1297e-06 0)
(44.2 3.13467e-06 0)
(44.2 2.21469e-06 0)
(44.2 1.36586e-06 0)
(44.2 5.83839e-07 0)
(44.2 1.04503e-07 0)
(44.2 -1.40015e-07 0)
(44.2 -7.4308e-07 0)
(44.2 -1.70903e-06 0)
(44.2 -2.75641e-06 0)
(44.2 -3.88805e-06 0)
(44.2 -5.10583e-06 0)
(44.2 -6.41077e-06 0)
(44.2 -7.8029e-06 0)
(44.2 -9.28137e-06 0)
(44.2 -1.08448e-05 0)
(44.2 -1.24909e-05 0)
(44.2 -1.42167e-05 0)
(44.2 -1.60173e-05 0)
(44.2 -1.78862e-05 0)
(44.2 -1.98139e-05 0)
(44.2 -2.17877e-05 0)
(44.2 -2.37895e-05 0)
(44.2 -2.57975e-05 0)
(44.2 -2.77824e-05 0)
(44.2 -2.97127e-05 0)
(44.2 -3.15469e-05 0)
(44.2 -3.32455e-05 0)
(44.2 -3.47564e-05 0)
(44.2 -3.60353e-05 0)
(44.2 -3.70228e-05 0)
(44.2 -3.76724e-05 0)
(44.2 -3.79221e-05 0)
(44.2 -3.77217e-05 0)
(44.2 -3.70107e-05 0)
(44.2 -3.57249e-05 0)
(44.2 -3.38292e-05 0)
(44.2 -3.12795e-05 0)
(44.2 -2.80704e-05 0)
(44.2 -2.41869e-05 0)
(44.2 -1.95758e-05 0)
(44.2 -1.41485e-05 0)
(44.2 -7.83315e-06 0)
(44.2 -1.0445e-06 0)
(44.2 5.32867e-06 0)
(44.2 1.08776e-05 0)
(44.2 1.56576e-05 0)
(44.2 1.97178e-05 0)
(44.2 2.31047e-05 0)
(44.2 2.58652e-05 0)
(44.2 2.80367e-05 0)
(44.2 2.96542e-05 0)
(44.2 3.07493e-05 0)
(44.2 3.13591e-05 0)
(44.2 3.15255e-05 0)
(44.2 3.12924e-05 0)
(44.2 3.07089e-05 0)
(44.2 2.98212e-05 0)
(44.2 2.8679e-05 0)
(44.2 2.73292e-05 0)
(44.2 2.58182e-05 0)
(44.2 2.41889e-05 0)
(44.2 2.2481e-05 0)
(44.2 2.07299e-05 0)
(44.2 1.8966e-05 0)
(44.2 1.72154e-05 0)
(44.2 1.54991e-05 0)
(44.2 1.38337e-05 0)
(44.2 1.2232e-05 0)
(44.2 1.07031e-05 0)
(44.2 9.2532e-06 0)
(44.2 7.88582e-06 0)
(44.2 6.60258e-06 0)
(44.2 5.40315e-06 0)
(44.2 4.28599e-06 0)
(44.2 3.24869e-06 0)
(44.2 2.28804e-06 0)
(44.2 1.40053e-06 0)
(44.2 5.82191e-07 0)
(44.2 9.49011e-08 0)
(44.2 -1.45963e-07 0)
(44.2 -7.63596e-07 0)
(44.2 -1.74767e-06 0)
(44.2 -2.81492e-06 0)
(44.2 -3.96811e-06 0)
(44.2 -5.20902e-06 0)
(44.2 -6.53869e-06 0)
(44.2 -7.95715e-06 0)
(44.2 -9.4634e-06 0)
(44.2 -1.10558e-05 0)
(44.2 -1.27318e-05 0)
(44.2 -1.44878e-05 0)
(44.2 -1.63185e-05 0)
(44.2 -1.8217e-05 0)
(44.2 -2.01729e-05 0)
(44.2 -2.21726e-05 0)
(44.2 -2.41969e-05 0)
(44.2 -2.62231e-05 0)
(44.2 -2.82208e-05 0)
(44.2 -3.01576e-05 0)
(44.2 -3.19916e-05 0)
(44.2 -3.36824e-05 0)
(44.2 -3.51782e-05 0)
(44.2 -3.64347e-05 0)
(44.2 -3.73933e-05 0)
(44.2 -3.80081e-05 0)
(44.2 -3.82186e-05 0)
(44.2 -3.79743e-05 0)
(44.2 -3.72178e-05 0)
(44.2 -3.58869e-05 0)
(44.2 -3.39483e-05 0)
(44.2 -3.13649e-05 0)
(44.2 -2.81306e-05 0)
(44.2 -2.42281e-05 0)
(44.2 -1.96022e-05 0)
(44.2 -1.41615e-05 0)
(44.2 -7.8329e-06 0)
(44.2 -1.0313e-06 0)
(44.2 5.35234e-06 0)
(44.2 1.09095e-05 0)
(44.2 1.56975e-05 0)
(44.2 1.97692e-05 0)
(44.2 2.31732e-05 0)
(44.2 2.5956e-05 0)
(44.2 2.81536e-05 0)
(44.2 2.97986e-05 0)
(44.2 3.09211e-05 0)
(44.2 3.15559e-05 0)
(44.2 3.17426e-05 0)
(44.2 3.15231e-05 0)
(44.2 3.09449e-05 0)
(44.2 3.00532e-05 0)
(44.2 2.88977e-05 0)
(44.2 2.75259e-05 0)
(44.2 2.59859e-05 0)
(44.2 2.43228e-05 0)
(44.2 2.25789e-05 0)
(44.2 2.07921e-05 0)
(44.2 1.89951e-05 0)
(44.2 1.72156e-05 0)
(44.2 1.54759e-05 0)
(44.2 1.37935e-05 0)
(44.2 1.21808e-05 0)
(44.2 1.06468e-05 0)
(44.2 9.19703e-06 0)
(44.2 7.83416e-06 0)
(44.2 6.55893e-06 0)
(44.2 5.37034e-06 0)
(44.2 4.26603e-06 0)
(44.2 3.2429e-06 0)
(44.2 2.29735e-06 0)
(44.2 1.42506e-06 0)
(44.2 6.21633e-07 0)
(44.2 1.18319e-07 0)
(44.2 -1.51394e-07 0)
(44.2 -7.79285e-07 0)
(44.2 -1.77331e-06 0)
(44.2 -2.85146e-06 0)
(44.2 -4.01666e-06 0)
(44.2 -5.27076e-06 0)
(44.2 -6.61485e-06 0)
(44.2 -8.04891e-06 0)
(44.2 -9.57205e-06 0)
(44.2 -1.11826e-05 0)
(44.2 -1.28779e-05 0)
(44.2 -1.46541e-05 0)
(44.2 -1.6506e-05 0)
(44.2 -1.84261e-05 0)
(44.2 -2.04035e-05 0)
(44.2 -2.24241e-05 0)
(44.2 -2.44683e-05 0)
(44.2 -2.65124e-05 0)
(44.2 -2.85252e-05 0)
(44.2 -3.04735e-05 0)
(44.2 -3.23143e-05 0)
(44.2 -3.40068e-05 0)
(44.2 -3.54984e-05 0)
(44.2 -3.67446e-05 0)
(44.2 -3.76869e-05 0)
(44.2 -3.82796e-05 0)
(44.2 -3.84629e-05 0)
(44.2 -3.81875e-05 0)
(44.2 -3.73962e-05 0)
(44.2 -3.60285e-05 0)
(44.2 -3.40557e-05 0)
(44.2 -3.14427e-05 0)
(44.2 -2.81853e-05 0)
(44.2 -2.42653e-05 0)
(44.2 -1.96253e-05 0)
(44.2 -1.41729e-05 0)
(44.2 -7.83262e-06 0)
(44.2 -1.02012e-06 0)
(44.2 5.37181e-06 0)
(44.2 1.09352e-05 0)
(44.2 1.57304e-05 0)
(44.2 1.9812e-05 0)
(44.2 2.32303e-05 0)
(44.2 2.60306e-05 0)
(44.2 2.82478e-05 0)
(44.2 2.99135e-05 0)
(44.2 3.10563e-05 0)
(44.2 3.17101e-05 0)
(44.2 3.19142e-05 0)
(44.2 3.17107e-05 0)
(44.2 3.11471e-05 0)
(44.2 3.02697e-05 0)
(44.2 2.91283e-05 0)
(44.2 2.77708e-05 0)
(44.2 2.62447e-05 0)
(44.2 2.45947e-05 0)
(44.2 2.28618e-05 0)
(44.2 2.10829e-05 0)
(44.2 1.92896e-05 0)
(44.2 1.75089e-05 0)
(44.2 1.57627e-05 0)
(44.2 1.40683e-05 0)
(44.2 1.24389e-05 0)
(44.2 1.08838e-05 0)
(44.2 9.40934e-06 0)
(44.2 8.01922e-06 0)
(44.2 6.71486e-06 0)
(44.2 5.49621e-06 0)
(44.2 4.36159e-06 0)
(44.2 3.30827e-06 0)
(44.2 2.33306e-06 0)
(44.2 1.43234e-06 0)
(44.2 6.02035e-07 0)
(44.2 1.01978e-07 0)
(44.2 -1.53982e-07 0)
(44.2 -7.88545e-07 0)
(44.2 -1.79117e-06 0)
(44.2 -2.87836e-06 0)
(44.2 -4.05322e-06 0)
(44.2 -5.31795e-06 0)
(44.2 -6.67357e-06 0)
(44.2 -8.11989e-06 0)
(44.2 -9.65588e-06 0)
(44.2 -1.12799e-05 0)
(44.2 -1.29894e-05 0)
(44.2 -1.47804e-05 0)
(44.2 -1.66474e-05 0)
(44.2 -1.85828e-05 0)
(44.2 -2.05756e-05 0)
(44.2 -2.26113e-05 0)
(44.2 -2.46698e-05 0)
(44.2 -2.67272e-05 0)
(44.2 -2.87517e-05 0)
(44.2 -3.07096e-05 0)
(44.2 -3.25573e-05 0)
(44.2 -3.42534e-05 0)
(44.2 -3.57448e-05 0)
(44.2 -3.69865e-05 0)
(44.2 -3.79196e-05 0)
(44.2 -3.84985e-05 0)
(44.2 -3.86635e-05 0)
(44.2 -3.8365e-05 0)
(44.2 -3.75477e-05 0)
(44.2 -3.61519e-05 0)
(44.2 -3.41512e-05 0)
(44.2 -3.15141e-05 0)
(44.2 -2.8236e-05 0)
(44.2 -2.42992e-05 0)
(44.2 -1.96463e-05 0)
(44.2 -1.41827e-05 0)
(44.2 -7.83262e-06 0)
(44.2 -1.01132e-06 0)
(44.2 5.38751e-06 0)
(44.2 1.09566e-05 0)
(44.2 1.57583e-05 0)
(44.2 1.98488e-05 0)
(44.2 2.32781e-05 0)
(44.2 2.60911e-05 0)
(44.2 2.83217e-05 0)
(44.2 2.99998e-05 0)
(44.2 3.11533e-05 0)
(44.2 3.18147e-05 0)
(44.2 3.20221e-05 0)
(44.2 3.18167e-05 0)
(44.2 3.12453e-05 0)
(44.2 3.03539e-05 0)
(44.2 2.91928e-05 0)
(44.2 2.78105e-05 0)
(44.2 2.62561e-05 0)
(44.2 2.4576e-05 0)
(44.2 2.28133e-05 0)
(44.2 2.10068e-05 0)
(44.2 1.91898e-05 0)
(44.2 1.73908e-05 0)
(44.2 1.56322e-05 0)
(44.2 1.39317e-05 0)
(44.2 1.23021e-05 0)
(44.2 1.07525e-05 0)
(44.2 9.28815e-06 0)
(44.2 7.91196e-06 0)
(44.2 6.62444e-06 0)
(44.2 5.42462e-06 0)
(44.2 4.3101e-06 0)
(44.2 3.2776e-06 0)
(44.2 2.32339e-06 0)
(44.2 1.44353e-06 0)
(44.2 6.33331e-07 0)
(44.2 1.22504e-07 0)
(44.2 -1.56866e-07 0)
(44.2 -7.95952e-07 0)
(44.2 -1.80216e-06 0)
(44.2 -2.89381e-06 0)
(44.2 -4.07367e-06 0)
(44.2 -5.34374e-06 0)
(44.2 -6.7053e-06 0)
(44.2 -8.15824e-06 0)
(44.2 -9.70163e-06 0)
(44.2 -1.13338e-05 0)
(44.2 -1.30523e-05 0)
(44.2 -1.48531e-05 0)
(44.2 -1.67306e-05 0)
(44.2 -1.86772e-05 0)
(44.2 -2.06817e-05 0)
(44.2 -2.27295e-05 0)
(44.2 -2.48002e-05 0)
(44.2 -2.68696e-05 0)
(44.2 -2.89055e-05 0)
(44.2 -3.08737e-05 0)
(44.2 -3.27298e-05 0)
(44.2 -3.44322e-05 0)
(44.2 -3.5927e-05 0)
(44.2 -3.71689e-05 0)
(44.2 -3.80985e-05 0)
(44.2 -3.86701e-05 0)
(44.2 -3.88239e-05 0)
(44.2 -3.8511e-05 0)
(44.2 -3.76755e-05 0)
(44.2 -3.62586e-05 0)
(44.2 -3.42361e-05 0)
(44.2 -3.15774e-05 0)
(44.2 -2.82811e-05 0)
(44.2 -2.43296e-05 0)
(44.2 -1.96647e-05 0)
(44.2 -1.41919e-05 0)
(44.2 -7.83334e-06 0)
(44.2 -1.00459e-06 0)
(44.2 5.4002e-06 0)
(44.2 1.09743e-05 0)
(44.2 1.57816e-05 0)
(44.2 1.98789e-05 0)
(44.2 2.33164e-05 0)
(44.2 2.61385e-05 0)
(44.2 2.83782e-05 0)
(44.2 3.00651e-05 0)
(44.2 3.12263e-05 0)
(44.2 3.18944e-05 0)
(44.2 3.2108e-05 0)
(44.2 3.19089e-05 0)
(44.2 3.13451e-05 0)
(44.2 3.04632e-05 0)
(44.2 2.9314e-05 0)
(44.2 2.79461e-05 0)
(44.2 2.6408e-05 0)
(44.2 2.4745e-05 0)
(44.2 2.29987e-05 0)
(44.2 2.12063e-05 0)
(44.2 1.94e-05 0)
(44.2 1.76069e-05 0)
(44.2 1.58491e-05 0)
(44.2 1.41439e-05 0)
(44.2 1.25046e-05 0)
(44.2 1.09406e-05 0)
(44.2 9.45812e-06 0)
(44.2 8.0608e-06 0)
(44.2 6.75002e-06 0)
(44.2 5.52553e-06 0)
(44.2 4.38567e-06 0)
(44.2 3.32767e-06 0)
(44.2 2.34843e-06 0)
(44.2 1.44408e-06 0)
(44.2 6.10408e-07 0)
(44.2 1.05364e-07 0)
(44.2 -1.57953e-07 0)
(44.2 -8.00099e-07 0)
(44.2 -1.81045e-06 0)
(44.2 -2.90636e-06 0)
(44.2 -4.09066e-06 0)
(44.2 -5.3656e-06 0)
(44.2 -6.73237e-06 0)
(44.2 -8.19094e-06 0)
(44.2 -9.74047e-06 0)
(44.2 -1.13792e-05 0)
(44.2 -1.31044e-05 0)
(44.2 -1.49122e-05 0)
(44.2 -1.67971e-05 0)
(44.2 -1.87514e-05 0)
(44.2 -2.0764e-05 0)
(44.2 -2.282e-05 0)
(44.2 -2.4899e-05 0)
(44.2 -2.69765e-05 0)
(44.2 -2.90203e-05 0)
(44.2 -3.09957e-05 0)
(44.2 -3.28584e-05 0)
(44.2 -3.45661e-05 0)
(44.2 -3.60645e-05 0)
(44.2 -3.7308e-05 0)
(44.2 -3.82368e-05 0)
(44.2 -3.88047e-05 0)
(44.2 -3.89519e-05 0)
(44.2 -3.86288e-05 0)
(44.2 -3.77805e-05 0)
(44.2 -3.63485e-05 0)
(44.2 -3.43091e-05 0)
(44.2 -3.16343e-05 0)
(44.2 -2.83225e-05 0)
(44.2 -2.43575e-05 0)
(44.2 -1.9682e-05 0)
(44.2 -1.42003e-05 0)
(44.2 -7.83462e-06 0)
(44.2 -9.99742e-07 0)
(44.2 5.41017e-06 0)
(44.2 1.09889e-05 0)
(44.2 1.58012e-05 0)
(44.2 1.99042e-05 0)
(44.2 2.33475e-05 0)
(44.2 2.61752e-05 0)
(44.2 2.84199e-05 0)
(44.2 3.01103e-05 0)
(44.2 3.12734e-05 0)
(44.2 3.19411e-05 0)
(44.2 3.21512e-05 0)
(44.2 3.19452e-05 0)
(44.2 3.13704e-05 0)
(44.2 3.04734e-05 0)
(44.2 2.93049e-05 0)
(44.2 2.79142e-05 0)
(44.2 2.63508e-05 0)
(44.2 2.46617e-05 0)
(44.2 2.289e-05 0)
(44.2 2.1075e-05 0)
(44.2 1.92501e-05 0)
(44.2 1.74437e-05 0)
(44.2 1.56784e-05 0)
(44.2 1.39719e-05 0)
(44.2 1.23369e-05 0)
(44.2 1.07824e-05 0)
(44.2 9.31367e-06 0)
(44.2 7.93365e-06 0)
(44.2 6.64285e-06 0)
(44.2 5.44014e-06 0)
(44.2 4.32305e-06 0)
(44.2 3.2884e-06 0)
(44.2 2.3322e-06 0)
(44.2 1.45045e-06 0)
(44.2 6.38686e-07 0)
(44.2 1.24823e-07 0)
(44.1999 -1.59544e-07 0)
(44.1999 -8.0383e-07 0)
(44.1999 -1.81534e-06 0)
(44.1999 -2.91264e-06 0)
(44.1999 -4.09876e-06 0)
(44.1999 -5.37582e-06 0)
(44.1999 -6.7448e-06 0)
(44.1999 -8.20583e-06 0)
(44.1999 -9.75822e-06 0)
(44.1999 -1.14003e-05 0)
(44.1999 -1.31293e-05 0)
(44.1999 -1.49417e-05 0)
(44.1999 -1.68317e-05 0)
(44.1999 -1.87916e-05 0)
(44.1999 -2.08102e-05 0)
(44.1999 -2.28728e-05 0)
(44.1999 -2.49587e-05 0)
(44.1999 -2.70435e-05 0)
(44.1999 -2.90945e-05 0)
(44.1999 -3.10771e-05 0)
(44.1999 -3.29464e-05 0)
(44.1999 -3.466e-05 0)
(44.1999 -3.61631e-05 0)
(44.1999 -3.74099e-05 0)
(44.1999 -3.834e-05 0)
(44.1999 -3.89072e-05 0)
(44.1999 -3.90512e-05 0)
(44.1999 -3.87229e-05 0)
(44.1999 -3.78664e-05 0)
(44.1999 -3.64235e-05 0)
(44.1999 -3.43717e-05 0)
(44.1999 -3.16827e-05 0)
(44.1999 -2.83581e-05 0)
(44.1999 -2.43822e-05 0)
(44.1999 -1.96974e-05 0)
(44.1999 -1.42085e-05 0)
(44.1999 -7.83659e-06 0)
(44.1999 -9.96324e-07 0)
(44.1999 5.41809e-06 0)
(44.1999 1.10007e-05 0)
(44.1999 1.58168e-05 0)
(44.1999 1.99234e-05 0)
(44.1999 2.33706e-05 0)
(44.1999 2.62018e-05 0)
(44.1999 2.84495e-05 0)
(44.1999 3.01425e-05 0)
(44.1999 3.13075e-05 0)
(44.1999 3.1977e-05 0)
(44.1999 3.21896e-05 0)
(44.1999 3.19876e-05 0)
(44.1999 3.14192e-05 0)
(44.1999 3.05316e-05 0)
(44.1999 2.93761e-05 0)
(44.1999 2.80017e-05 0)
(44.1999 2.6457e-05 0)
(44.1999 2.47877e-05 0)
(44.1999 2.30356e-05 0)
(44.1999 2.1238e-05 0)
(44.1999 1.9427e-05 0)
(44.1999 1.76298e-05 0)
(44.1999 1.58684e-05 0)
(44.1999 1.41603e-05 0)
(44.1999 1.25185e-05 0)
(44.1999 1.09524e-05 0)
(44.1999 9.46813e-06 0)
(44.1999 8.06926e-06 0)
(44.1999 6.7572e-06 0)
(44.1999 5.53167e-06 0)
(44.1999 4.39087e-06 0)
(44.1999 3.33222e-06 0)
(44.1999 2.35233e-06 0)
(44.1999 1.44752e-06 0)
(44.1999 6.13648e-07 0)
(44.1999 1.0692e-07 0)
(44.1999 -1.59915e-07 0)
(44.1999 -8.0531e-07 0)
(44.1999 -1.81865e-06 0)
(44.1999 -2.91795e-06 0)
(44.1999 -4.10611e-06 0)
(44.1999 -5.38554e-06 0)
(44.1999 -6.75716e-06 0)
(44.1999 -8.22103e-06 0)
(44.1999 -9.7763e-06 0)
(44.1999 -1.14215e-05 0)
(44.1999 -1.31538e-05 0)
(44.1999 -1.49695e-05 0)
(44.1999 -1.68631e-05 0)
(44.1999 -1.88268e-05 0)
(44.1999 -2.08494e-05 0)
(44.1999 -2.29161e-05 0)
(44.1999 -2.50063e-05 0)
(44.1999 -2.70955e-05 0)
(44.1999 -2.91511e-05 0)
(44.1999 -3.11383e-05 0)
(44.1999 -3.3012e-05 0)
(44.1999 -3.47298e-05 0)
(44.1999 -3.62366e-05 0)
(44.1999 -3.74864e-05 0)
(44.1999 -3.84184e-05 0)
(44.1999 -3.8986e-05 0)
(44.1999 -3.91287e-05 0)
(44.1999 -3.87965e-05 0)
(44.1999 -3.79346e-05 0)
(44.1999 -3.64845e-05 0)
(44.1999 -3.44233e-05 0)
(44.1999 -3.17249e-05 0)
(44.1999 -2.839e-05 0)
(44.1999 -2.44043e-05 0)
(44.1999 -1.97117e-05 0)
(44.1999 -1.4216e-05 0)
(44.1999 -7.83892e-06 0)
(44.1999 -9.94296e-07 0)
(44.1999 5.42389e-06 0)
(44.1999 1.101e-05 0)
(44.1999 1.58292e-05 0)
(44.1999 1.9939e-05 0)
(44.1999 2.33884e-05 0)
(44.1999 2.6221e-05 0)
(44.1999 2.84694e-05 0)
(44.1999 3.01616e-05 0)
(44.1999 3.1325e-05 0)
(44.1999 3.19913e-05 0)
(44.1999 3.21986e-05 0)
(44.1999 3.19888e-05 0)
(44.1999 3.14093e-05 0)
(44.1999 3.05074e-05 0)
(44.1999 2.93339e-05 0)
(44.1999 2.79385e-05 0)
(44.1999 2.63707e-05 0)
(44.1999 2.46777e-05 0)
(44.1999 2.29027e-05 0)
(44.1999 2.10849e-05 0)
(44.1999 1.92576e-05 0)
(44.1999 1.74493e-05 0)
(44.1999 1.56825e-05 0)
(44.1999 1.39748e-05 0)
(44.1999 1.23389e-05 0)
(44.1999 1.07837e-05 0)
(44.1999 9.31455e-06 0)
(44.1999 7.93427e-06 0)
(44.1999 6.64333e-06 0)
(44.1999 5.44056e-06 0)
(44.1999 4.32351e-06 0)
(44.1999 3.28894e-06 0)
(44.1999 2.33311e-06 0)
(44.1999 1.45184e-06 0)
(44.1999 6.40434e-07 0)
(44.1999 1.25808e-07 0)
(44.1999 -1.60741e-07 0)
(44.1999 -8.07316e-07 0)
(44.1999 -1.82085e-06 0)
(44.1999 -2.92032e-06 0)
(44.1999 -4.109e-06 0)
(44.1999 -5.38878e-06 0)
(44.1999 -6.76085e-06 0)
(44.1999 -8.22548e-06 0)
(44.1999 -9.7818e-06 0)
(44.1999 -1.14282e-05 0)
(44.1999 -1.31621e-05 0)
(44.1999 -1.49797e-05 0)
(44.1999 -1.68755e-05 0)
(44.1999 -1.88419e-05 0)
(44.1999 -2.08675e-05 0)
(44.1999 -2.29377e-05 0)
(44.1999 -2.50317e-05 0)
(44.1999 -2.7125e-05 0)
(44.1999 -2.91849e-05 0)
(44.1999 -3.11766e-05 0)
(44.1999 -3.30548e-05 0)
(44.1999 -3.4777e-05 0)
(44.1999 -3.62877e-05 0)
(44.1999 -3.75408e-05 0)
(44.1999 -3.84753e-05 0)
(44.1999 -3.90443e-05 0)
(44.1999 -3.91871e-05 0)
(44.1999 -3.88541e-05 0)
(44.1999 -3.79891e-05 0)
(44.1999 -3.65336e-05 0)
(44.1999 -3.44659e-05 0)
(44.1999 -3.17588e-05 0)
(44.1999 -2.84158e-05 0)
(44.1999 -2.44229e-05 0)
(44.1999 -1.97238e-05 0)
(44.1999 -1.42232e-05 0)
(44.1999 -7.84162e-06 0)
(44.1999 -9.93136e-07 0)
(44.1999 5.42825e-06 0)
(44.1999 1.10168e-05 0)
(44.1999 1.58382e-05 0)
(44.1999 1.99492e-05 0)
(44.1999 2.33997e-05 0)
(44.1999 2.62329e-05 0)
(44.1999 2.84813e-05 0)
(44.1999 3.01737e-05 0)
(44.1999 3.13369e-05 0)
(44.1999 3.20035e-05 0)
(44.1999 3.22125e-05 0)
(44.1999 3.20065e-05 0)
(44.1999 3.14339e-05 0)
(44.1999 3.05423e-05 0)
(44.1999 2.9383e-05 0)
(44.1999 2.80053e-05 0)
(44.1999 2.64578e-05 0)
(44.1999 2.47863e-05 0)
(44.1999 2.30324e-05 0)
(44.1999 2.12336e-05 0)
(44.1999 1.94217e-05 0)
(44.1999 1.76241e-05 0)
(44.1999 1.58626e-05 0)
(44.1999 1.41545e-05 0)
(44.1999 1.25129e-05 0)
(44.1999 1.09471e-05 0)
(44.1999 9.46339e-06 0)
(44.1999 8.06511e-06 0)
(44.1999 6.75378e-06 0)
(44.1999 5.5289e-06 0)
(44.1999 4.38884e-06 0)
(44.1999 3.33101e-06 0)
(44.1999 2.352e-06 0)
(44.1999 1.4479e-06 0)
(44.1999 6.14683e-07 0)
(44.1999 1.07656e-07 0)
(44.1999 -1.60727e-07 0)
(44.1999 -8.07774e-07 0)
(44.1999 -1.82254e-06 0)
(44.1999 -2.92335e-06 0)
(44.1999 -4.11319e-06 0)
(44.1999 -5.3941e-06 0)
(44.1999 -6.76743e-06 0)
(44.1999 -8.23343e-06 0)
(44.1999 -9.79121e-06 0)
(44.1999 -1.14391e-05 0)
(44.1999 -1.31746e-05 0)
(44.1999 -1.49938e-05 0)
(44.1999 -1.68912e-05 0)
(44.1999 -1.88593e-05 0)
(44.1999 -2.08867e-05 0)
(44.1999 -2.29588e-05 0)
(44.1999 -2.50549e-05 0)
(44.1999 -2.71503e-05 0)
(44.1999 -2.92126e-05 0)
(44.1999 -3.12068e-05 0)
(44.1999 -3.30876e-05 0)
(44.1999 -3.48124e-05 0)
(44.1999 -3.63258e-05 0)
(44.1999 -3.75813e-05 0)
(44.1999 -3.85179e-05 0)
(44.1999 -3.90885e-05 0)
(44.1999 -3.92319e-05 0)
(44.1999 -3.88977e-05 0)
(44.1999 -3.80308e-05 0)
(44.1999 -3.65722e-05 0)
(44.1999 -3.44996e-05 0)
(44.1999 -3.17876e-05 0)
(44.1999 -2.84383e-05 0)
(44.1999 -2.44389e-05 0)
(44.1999 -1.97346e-05 0)
(44.1999 -1.42293e-05 0)
(44.1999 -7.84426e-06 0)
(44.1999 -9.92878e-07 0)
(44.1999 5.43099e-06 0)
(44.1999 1.10218e-05 0)
(44.1999 1.58448e-05 0)
(44.1999 1.99572e-05 0)
(44.1999 2.34078e-05 0)
(44.1999 2.62404e-05 0)
(44.1999 2.84875e-05 0)
(44.1999 3.01774e-05 0)
(44.1999 3.13378e-05 0)
(44.1999 3.20006e-05 0)
(44.1999 3.22042e-05 0)
(44.1999 3.19905e-05 0)
(44.1999 3.14075e-05 0)
(44.1999 3.05023e-05 0)
(44.1999 2.93261e-05 0)
(44.1999 2.79285e-05 0)
(44.1999 2.63591e-05 0)
(44.1999 2.4665e-05 0)
(44.1999 2.28894e-05 0)
(44.1999 2.10715e-05 0)
(44.1999 1.92444e-05 0)
(44.1999 1.74367e-05 0)
(44.1999 1.56707e-05 0)
(44.1999 1.39639e-05 0)
(44.1999 1.23291e-05 0)
(44.1999 1.07752e-05 0)
(44.1999 9.30729e-06 0)
(44.1999 7.92823e-06 0)
(44.1999 6.63837e-06 0)
(44.1999 5.43668e-06 0)
(44.1999 4.32058e-06 0)
(44.1999 3.28687e-06 0)
(44.1999 2.33198e-06 0)
(44.1999 1.45143e-06 0)
(44.1999 6.4082e-07 0)
(44.1999 1.26249e-07 0)
(44.1999 -1.61422e-07 0)
(44.1999 -8.08823e-07 0)
(44.1999 -1.82311e-06 0)
(44.1999 -2.9236e-06 0)
(44.1999 -4.11318e-06 0)
(44.1999 -5.39406e-06 0)
(44.1999 -6.76735e-06 0)
(44.1999 -8.23332e-06 0)
(44.1999 -9.79127e-06 0)
(44.1999 -1.14395e-05 0)
(44.1999 -1.31754e-05 0)
(44.1999 -1.49953e-05 0)
(44.1999 -1.68937e-05 0)
(44.1999 -1.88631e-05 0)
(44.1999 -2.0892e-05 0)
(44.1999 -2.29659e-05 0)
(44.1999 -2.50641e-05 0)
(44.1999 -2.71619e-05 0)
(44.1999 -2.92267e-05 0)
(44.1999 -3.12236e-05 0)
(44.1999 -3.31073e-05 0)
(44.1999 -3.48349e-05 0)
(44.1999 -3.6351e-05 0)
(44.1999 -3.76091e-05 0)
(44.1999 -3.85479e-05 0)
(44.1999 -3.91201e-05 0)
(44.1999 -3.92645e-05 0)
(44.1999 -3.89311e-05 0)
(44.1999 -3.80634e-05 0)
(44.1999 -3.66022e-05 0)
(44.1999 -3.45263e-05 0)
(44.1999 -3.18089e-05 0)
(44.1999 -2.84548e-05 0)
(44.1999 -2.44513e-05 0)
(44.1999 -1.97429e-05 0)
(44.1999 -1.42347e-05 0)
(44.1999 -7.8468e-06 0)
(44.1999 -9.92936e-07 0)
(44.1999 5.43292e-06 0)
(44.1999 1.10249e-05 0)
(44.1999 1.58488e-05 0)
(44.1999 1.99608e-05 0)
(44.1999 2.3411e-05 0)
(44.1999 2.62427e-05 0)
(44.1999 2.84887e-05 0)
(44.1999 3.01779e-05 0)
(44.1999 3.13376e-05 0)
(44.1999 3.20006e-05 0)
(44.1999 3.2206e-05 0)
(44.1999 3.19967e-05 0)
(44.1999 3.14211e-05 0)
(44.1999 3.05272e-05 0)
(44.1999 2.9366e-05 0)
(44.1999 2.7987e-05 0)
(44.1999 2.64387e-05 0)
(44.1999 2.4767e-05 0)
(44.1999 2.30132e-05 0)
(44.1999 2.12149e-05 0)
(44.1999 1.94038e-05 0)
(44.1999 1.76073e-05 0)
(44.1999 1.5847e-05 0)
(44.1999 1.41403e-05 0)
(44.1999 1.25002e-05 0)
(44.1999 1.0936e-05 0)
(44.1999 9.45366e-06 0)
(44.1999 8.05682e-06 0)
(44.1999 6.74685e-06 0)
(44.1999 5.52343e-06 0)
(44.1999 4.38472e-06 0)
(44.1999 3.32798e-06 0)
(44.1999 2.3501e-06 0)
(44.1999 1.44719e-06 0)
(44.1999 6.14953e-07 0)
(44.1999 1.07981e-07 0)
(44.1999 -1.61237e-07 0)
(44.1999 -8.08913e-07 0)
(44.1999 -1.82399e-06 0)
(44.1999 -2.92516e-06 0)
(44.1999 -4.11545e-06 0)
(44.1999 -5.39711e-06 0)
(44.1999 -6.77118e-06 0)
(44.1999 -8.23788e-06 0)
(44.1999 -9.79657e-06 0)
(44.1999 -1.14455e-05 0)
(44.1999 -1.31822e-05 0)
(44.1999 -1.50029e-05 0)
(44.1999 -1.69021e-05 0)
(44.1999 -1.88722e-05 0)
(44.1999 -2.09019e-05 0)
(44.1999 -2.29767e-05 0)
(44.1999 -2.50757e-05 0)
(44.1999 -2.71745e-05 0)
(44.1999 -2.92403e-05 0)
(44.1999 -3.12384e-05 0)
(44.1999 -3.31233e-05 0)
(44.1999 -3.48524e-05 0)
(44.1999 -3.63701e-05 0)
(44.1999 -3.76298e-05 0)
(44.1999 -3.85701e-05 0)
(44.1999 -3.91438e-05 0)
(44.1999 -3.92891e-05 0)
(44.1999 -3.89555e-05 0)
(44.1999 -3.80872e-05 0)
(44.1999 -3.66249e-05 0)
(44.1999 -3.45464e-05 0)
(44.1999 -3.18266e-05 0)
(44.1999 -2.84688e-05 0)
(44.1999 -2.44613e-05 0)
(44.1999 -1.97499e-05 0)
(44.1999 -1.42388e-05 0)
(44.1999 -7.84889e-06 0)
(44.1999 -9.93444e-07 0)
(44.1999 5.43372e-06 0)
(44.1999 1.10269e-05 0)
(44.1999 1.58513e-05 0)
(44.1999 1.99636e-05 0)
(44.1999 2.34129e-05 0)
(44.1999 2.6243e-05 0)
(44.1999 2.84869e-05 0)
(44.1999 3.01731e-05 0)
(44.1999 3.13299e-05 0)
(44.1999 3.1989e-05 0)
(44.1999 3.21892e-05 0)
(44.1999 3.19727e-05 0)
(44.1999 3.13873e-05 0)
(44.1999 3.04804e-05 0)
(44.1999 2.93029e-05 0)
(44.1999 2.79047e-05 0)
(44.1999 2.63352e-05 0)
(44.1999 2.46415e-05 0)
(44.1999 2.28665e-05 0)
(44.1999 2.10496e-05 0)
(44.1999 1.92239e-05 0)
(44.1999 1.74176e-05 0)
(44.1999 1.56531e-05 0)
(44.1999 1.3948e-05 0)
(44.1999 1.23149e-05 0)
(44.1999 1.07625e-05 0)
(44.1999 9.29621e-06 0)
(44.1999 7.91867e-06 0)
(44.1999 6.63048e-06 0)
(44.1999 5.43042e-06 0)
(44.1999 4.31581e-06 0)
(44.1999 3.28355e-06 0)
(44.1999 2.32986e-06 0)
(44.1999 1.45031e-06 0)
(44.1999 6.40593e-07 0)
(44.1999 1.26344e-07 0)
(44.1999 -1.61657e-07 0)
(44.1999 -8.09554e-07 0)
(44.1999 -1.8241e-06 0)
(44.1999 -2.92478e-06 0)
(44.1999 -4.11467e-06 0)
(44.1999 -5.39588e-06 0)
(44.1999 -6.76964e-06 0)
(44.1999 -8.23612e-06 0)
(44.1999 -9.79455e-06 0)
(44.1999 -1.14434e-05 0)
(44.1999 -1.31802e-05 0)
(44.1999 -1.50012e-05 0)
(44.1999 -1.69008e-05 0)
(44.1999 -1.88715e-05 0)
(44.1999 -2.0902e-05 0)
(44.1999 -2.29777e-05 0)
(44.1999 -2.50778e-05 0)
(44.1999 -2.71779e-05 0)
(44.1999 -2.92452e-05 0)
(44.1999 -3.12448e-05 0)
(44.1999 -3.31315e-05 0)
(44.1999 -3.48624e-05 0)
(44.1999 -3.63817e-05 0)
(44.1999 -3.76431e-05 0)
(44.1999 -3.85849e-05 0)
(44.1999 -3.91599e-05 0)
(44.1999 -3.93062e-05 0)
(44.1999 -3.89736e-05 0)
(44.1999 -3.81053e-05 0)
(44.1999 -3.66415e-05 0)
(44.1999 -3.45613e-05 0)
(44.1999 -3.1838e-05 0)
(44.1999 -2.84774e-05 0)
(44.1999 -2.44678e-05 0)
(44.1999 -1.97542e-05 0)
(44.1999 -1.42418e-05 0)
(44.1999 -7.85047e-06 0)
(44.1999 -9.93735e-07 0)
(44.1999 5.43434e-06 0)
(44.1999 1.10277e-05 0)
(44.1999 1.58519e-05 0)
(44.1999 1.99631e-05 0)
(44.1999 2.34111e-05 0)
(44.1999 2.62398e-05 0)
(44.1999 2.84822e-05 0)
(44.1999 3.01677e-05 0)
(44.1999 3.13238e-05 0)
(44.1999 3.19834e-05 0)
(44.1999 3.21858e-05 0)
(44.1999 3.1974e-05 0)
(44.1999 3.13965e-05 0)
(44.1999 3.05013e-05 0)
(44.1999 2.93394e-05 0)
(44.1999 2.79603e-05 0)
(44.1999 2.64124e-05 0)
(44.1999 2.47414e-05 0)
(44.1999 2.29887e-05 0)
(44.1999 2.11918e-05 0)
(44.1999 1.93822e-05 0)
(44.1999 1.75874e-05 0)
(44.1999 1.58288e-05 0)
(44.1999 1.41239e-05 0)
(44.1999 1.24855e-05 0)
(44.1999 1.0923e-05 0)
(44.1999 9.4424e-06 0)
(44.1999 8.0473e-06 0)
(44.1999 6.73901e-06 0)
(44.1999 5.517e-06 0)
(44.1999 4.37964e-06 0)
(44.1999 3.3243e-06 0)
(44.1999 2.3476e-06 0)
(44.1999 1.4457e-06 0)
(44.1999 6.14443e-07 0)
(44.1999 1.07966e-07 0)
(44.1999 -1.61512e-07 0)
(44.1999 -8.09542e-07 0)
(44.1999 -1.82457e-06 0)
(44.1999 -2.92561e-06 0)
(44.1999 -4.11605e-06 0)
(44.1999 -5.39791e-06 0)
(44.1999 -6.77224e-06 0)
(44.1999 -8.23929e-06 0)
(44.1999 -9.79823e-06 0)
(44.1999 -1.14476e-05 0)
(44.1999 -1.31847e-05 0)
(44.1999 -1.5006e-05 0)
(44.1999 -1.6906e-05 0)
(44.1999 -1.88771e-05 0)
(44.1999 -2.09079e-05 0)
(44.1999 -2.29839e-05 0)
(44.1999 -2.50842e-05 0)
(44.1999 -2.71846e-05 0)
(44.1999 -2.92522e-05 0)
(44.1999 -3.12523e-05 0)
(44.1999 -3.31394e-05 0)
(44.1999 -3.48709e-05 0)
(44.1999 -3.63909e-05 0)
(44.1999 -3.76532e-05 0)
(44.1999 -3.85959e-05 0)
(44.1999 -3.91718e-05 0)
(44.1999 -3.93187e-05 0)
(44.1999 -3.8986e-05 0)
(44.1999 -3.81174e-05 0)
(44.1999 -3.66533e-05 0)
(44.1999 -3.45716e-05 0)
(44.1999 -3.18472e-05 0)
(44.1999 -2.84844e-05 0)
(44.1999 -2.44723e-05 0)
(44.1999 -1.97572e-05 0)
(44.1999 -1.42433e-05 0)
(44.1999 -7.85126e-06 0)
(44.1999 -9.94085e-07 0)
(44.1999 5.43432e-06 0)
(44.1999 1.10281e-05 0)
(44.1999 1.58521e-05 0)
(44.1999 1.9963e-05 0)
(44.1999 2.34096e-05 0)
(44.1999 2.62362e-05 0)
(44.1999 2.84764e-05 0)
(44.1999 3.01587e-05 0)
(44.1999 3.1312e-05 0)
(44.1999 3.1968e-05 0)
(44.1999 3.21655e-05 0)
(44.1999 3.19469e-05 0)
(44.1999 3.136e-05 0)
(44.1999 3.04522e-05 0)
(44.1999 2.92744e-05 0)
(44.1999 2.78764e-05 0)
(44.1999 2.63074e-05 0)
(44.1999 2.46147e-05 0)
(44.1999 2.28411e-05 0)
(44.1999 2.10258e-05 0)
(44.1999 1.92017e-05 0)
(44.1999 1.73973e-05 0)
(44.1999 1.56346e-05 0)
(44.1999 1.39314e-05 0)
(44.1999 1.23001e-05 0)
(44.1999 1.07495e-05 0)
(44.1999 9.28489e-06 0)
(44.1999 7.90907e-06 0)
(44.1999 6.6224e-06 0)
(44.1999 5.4236e-06 0)
(44.1999 4.31034e-06 0)
(44.1999 3.27936e-06 0)
(44.1999 2.32689e-06 0)
(44.1999 1.44873e-06 0)
(44.1999 6.40238e-07 0)
(44.1999 1.26414e-07 0)
(44.1999 -1.61822e-07 0)
(44.1999 -8.09876e-07 0)
(44.1999 -1.82459e-06 0)
(44.1999 -2.92527e-06 0)
(44.1999 -4.11511e-06 0)
(44.1999 -5.39646e-06 0)
(44.1999 -6.77035e-06 0)
(44.1999 -8.23702e-06 0)
(44.1999 -9.79579e-06 0)
(44.1999 -1.1445e-05 0)
(44.1999 -1.31821e-05 0)
(44.1999 -1.50035e-05 0)
(44.1999 -1.69036e-05 0)
(44.1999 -1.88749e-05 0)
(44.1999 -2.09061e-05 0)
(44.1999 -2.29825e-05 0)
(44.1999 -2.50835e-05 0)
(44.1999 -2.71847e-05 0)